       N       E                     dE             d eps       ncg     rms          rms(c)
DAV:   1     0.296026060085E+04    0.29603E+04   -0.89503E+04  7024   0.230E+03
DAV:   2     0.607030140490E+03   -0.23532E+04   -0.22533E+04  5640   0.761E+02
DAV:   3    -0.684110816562E+01   -0.61387E+03   -0.58436E+03  6680   0.270E+02
DAV:   4    -0.963560474810E+02   -0.89515E+02   -0.86282E+02  7744   0.105E+02
DAV:   5    -0.103822492309E+03   -0.74664E+01   -0.70044E+01  8360   0.289E+01    0.337E+01
DAV:   6    -0.114163485964E+03   -0.10341E+02   -0.15850E+02  8200   0.332E+01    0.370E+01
DAV:   7    -0.101115565587E+03    0.13048E+02   -0.15659E+02  7616   0.386E+01    0.236E+01
DAV:   8    -0.100612422859E+03    0.50314E+00   -0.41804E+01  7552   0.142E+01    0.212E+01
DAV:   9    -0.100459804699E+03    0.15262E+00   -0.33456E+01  7688   0.153E+01    0.130E+01
DAV:  10    -0.958899125421E+02    0.45699E+01   -0.17635E+01  7312   0.127E+01    0.640E+00
DAV:  11    -0.951017396982E+02    0.78817E+00   -0.34309E+00  7816   0.565E+00    0.352E+00
DAV:  12    -0.949604528494E+02    0.14129E+00   -0.65981E-01  7392   0.274E+00    0.191E+00
DAV:  13    -0.949328229553E+02    0.27630E-01   -0.16786E-01  7816   0.170E+00    0.125E+00
DAV:  14    -0.949386357638E+02   -0.58128E-02   -0.90837E-02  7416   0.164E+00    0.934E-01
DAV:  15    -0.949220208710E+02    0.16615E-01   -0.28906E-02  7928   0.842E-01    0.247E-01
DAV:  16    -0.949212564984E+02    0.76437E-03   -0.58431E-03  7880   0.357E-01    0.133E-01
DAV:  17    -0.949210951812E+02    0.16132E-03   -0.30164E-03  7328   0.210E-01    0.165E-01
DAV:  18    -0.949206149681E+02    0.48021E-03   -0.12507E-03  7320   0.157E-01    0.463E-02
DAV:  19    -0.949207132758E+02   -0.98308E-04   -0.30224E-04  6320   0.687E-02    0.295E-02
DAV:  20    -0.949210943965E+02   -0.38112E-03   -0.28915E-04  5936   0.541E-02    0.707E-02
DAV:  21    -0.949213067168E+02   -0.21232E-03   -0.19931E-04  5760   0.527E-02    0.183E-02
DAV:  22    -0.949215947477E+02   -0.28803E-03   -0.60740E-05  5072   0.255E-02    0.989E-03
DAV:  23    -0.949218363919E+02   -0.24164E-03   -0.28660E-05  5048   0.192E-02    0.124E-02
DAV:  24    -0.949220903424E+02   -0.25395E-03   -0.14304E-05  4640   0.166E-02    0.401E-03
DAV:  25    -0.949222237676E+02   -0.13343E-03   -0.63699E-06  4184   0.114E-02    0.441E-03
DAV:  26    -0.949222892384E+02   -0.65471E-04   -0.34924E-06  4064   0.858E-03    0.226E-03
DAV:  27    -0.949223257641E+02   -0.36526E-04   -0.31099E-06  4080   0.723E-03    0.185E-03
DAV:  28    -0.949223373598E+02   -0.11596E-04   -0.16324E-06  3784   0.598E-03    0.165E-03
DAV:  29    -0.949223390561E+02   -0.16963E-05   -0.76153E-07  3320   0.382E-03
   1 F= -.97894562E+02 E0= -.97894830E+02  d E =-.978946E+02
       N       E                     dE             d eps       ncg     rms          rms(c)
DAV:   1    -0.949228509449E+02   -0.51359E-03   -0.34887E-01  5768   0.158E+00    0.351E-01
DAV:   2    -0.949243311417E+02   -0.14802E-02   -0.17025E-02  7168   0.403E-01    0.192E-01
DAV:   3    -0.949244113197E+02   -0.80178E-04   -0.13405E-03  7880   0.139E-01    0.913E-02
DAV:   4    -0.949247478839E+02   -0.33656E-03   -0.19158E-03  6512   0.243E-01    0.107E-01
DAV:   5    -0.949243984415E+02    0.34944E-03   -0.13242E-03  6128   0.207E-01    0.445E-02
DAV:   6    -0.949243989104E+02   -0.46894E-06   -0.17669E-04  6192   0.477E-02    0.377E-02
DAV:   7    -0.949243762786E+02    0.22632E-04   -0.63964E-05  5112   0.423E-02    0.811E-03
DAV:   8    -0.949243766050E+02   -0.32647E-06   -0.66215E-06  3360   0.156E-02
   2 F= -.97896042E+02 E0= -.97896365E+02  d E =-.147991E-02
       N       E                     dE             d eps       ncg     rms          rms(c)
DAV:   1    -0.949244741537E+02   -0.97875E-04   -0.15029E-02  5744   0.329E-01    0.746E-02
DAV:   2    -0.949245429699E+02   -0.68816E-04   -0.78122E-04  7240   0.904E-02    0.400E-02
DAV:   3    -0.949245453852E+02   -0.24153E-05   -0.47731E-05  5728   0.273E-02
   3 F= -.97896096E+02 E0= -.97896442E+02  d E =-.153393E-02
       N       E                     dE             d eps       ncg     rms          rms(c)
DAV:   1    -0.949249114106E+02   -0.36844E-03   -0.10021E-01  5728   0.826E-01    0.239E-01
DAV:   2    -0.949256481727E+02   -0.73676E-03   -0.56557E-03  7184   0.255E-01    0.215E-01
DAV:   3    -0.949259212743E+02   -0.27310E-03   -0.39567E-03  7400   0.218E-01    0.241E-01
DAV:   4    -0.949253978839E+02    0.52339E-03   -0.19778E-03  6016   0.198E-01    0.701E-02
DAV:   5    -0.949253287341E+02    0.69150E-04   -0.12181E-03  6232   0.184E-01    0.417E-02
DAV:   6    -0.949252688622E+02    0.59872E-04   -0.31918E-04  5848   0.113E-01    0.178E-02
DAV:   7    -0.949252659279E+02    0.29343E-05   -0.37116E-05  5328   0.349E-02
   4 F= -.97896634E+02 E0= -.97897019E+02  d E =-.537484E-03
       N       E                     dE             d eps       ncg     rms          rms(c)
DAV:   1    -0.949252840644E+02   -0.15202E-04   -0.78564E-04  5840   0.763E-02    0.204E-02
DAV:   2    -0.949252880071E+02   -0.39428E-05   -0.44429E-05  5120   0.241E-02
   5 F= -.97896640E+02 E0= -.97897023E+02  d E =-.543641E-03
       N       E                     dE             d eps       ncg     rms          rms(c)
DAV:   1    -0.949254991176E+02   -0.21505E-03   -0.21551E-02  5584   0.384E-01    0.425E-02
DAV:   2    -0.949255736068E+02   -0.74489E-04   -0.75832E-04  7272   0.121E-01    0.317E-02
DAV:   3    -0.949255699220E+02    0.36848E-05   -0.23465E-04  6160   0.959E-02    0.261E-02
DAV:   4    -0.949255588306E+02    0.11091E-04   -0.50165E-05  4352   0.443E-02    0.117E-02
DAV:   5    -0.949255664554E+02   -0.76247E-05   -0.25816E-05  4688   0.252E-02
   6 F= -.97896884E+02 E0= -.97897305E+02  d E =-.243974E-03
       N       E                     dE             d eps       ncg     rms          rms(c)
DAV:   1    -0.949254809841E+02    0.77847E-04   -0.13827E-01  5520   0.967E-01    0.951E-02
DAV:   2    -0.949258489795E+02   -0.36800E-03   -0.42963E-03  7064   0.220E-01    0.521E-02
DAV:   3    -0.949258985859E+02   -0.49606E-04   -0.47333E-04  7488   0.112E-01    0.412E-02
DAV:   4    -0.949258909108E+02    0.76751E-05   -0.27995E-04  5920   0.991E-02    0.352E-02
DAV:   5    -0.949258935635E+02   -0.26526E-05   -0.11825E-04  5744   0.480E-02    0.385E-02
DAV:   6    -0.949258772306E+02    0.16333E-04   -0.59825E-05  4968   0.260E-02    0.136E-02
DAV:   7    -0.949258757621E+02    0.14685E-05   -0.11456E-05  3960   0.192E-02
   7 F= -.97897106E+02 E0= -.97897536E+02  d E =-.466156E-03
       N       E                     dE             d eps       ncg     rms          rms(c)
DAV:   1    -0.949260219994E+02   -0.14477E-03   -0.20557E-02  5640   0.388E-01    0.320E-02
DAV:   2    -0.949260885171E+02   -0.66518E-04   -0.70653E-04  7280   0.912E-02    0.161E-02
DAV:   3    -0.949260903753E+02   -0.18582E-05   -0.26842E-05  5240   0.243E-02
   8 F= -.97897321E+02 E0= -.97897746E+02  d E =-.214577E-03
       N       E                     dE             d eps       ncg     rms          rms(c)
DAV:   1    -0.949259859060E+02    0.10261E-03   -0.18526E-01  5608   0.116E+00    0.972E-02
DAV:   2    -0.949265445803E+02   -0.55867E-03   -0.59096E-03  7128   0.263E-01    0.529E-02
DAV:   3    -0.949265846909E+02   -0.40111E-04   -0.41001E-04  7840   0.955E-02    0.500E-02
DAV:   4    -0.949265747575E+02    0.99334E-05   -0.18340E-04  5896   0.722E-02    0.419E-02
DAV:   5    -0.949265850895E+02   -0.10332E-04   -0.93900E-05  5512   0.417E-02    0.303E-02
DAV:   6    -0.949265674818E+02    0.17608E-04   -0.10337E-04  4544   0.578E-02    0.115E-02
DAV:   7    -0.949265654449E+02    0.20369E-05   -0.10491E-05  3576   0.200E-02
   9 F= -.97897796E+02 E0= -.97898233E+02  d E =-.690313E-03
       N       E                     dE             d eps       ncg     rms          rms(c)
DAV:   1    -0.949245256470E+02    0.20418E-02   -0.73918E-01  5592   0.231E+00    0.193E-01
DAV:   2    -0.949267534074E+02   -0.22278E-02   -0.23609E-02  7016   0.515E-01    0.902E-02
DAV:   3    -0.949268448757E+02   -0.91468E-04   -0.12860E-03  8192   0.157E-01    0.676E-02
DAV:   4    -0.949269286304E+02   -0.83755E-04   -0.60740E-04  6864   0.144E-01    0.587E-02
DAV:   5    -0.949268638731E+02    0.64757E-04   -0.45149E-04  6072   0.122E-01    0.388E-02
DAV:   6    -0.949268803981E+02   -0.16525E-04   -0.17689E-04  6088   0.421E-02    0.474E-02
DAV:   7    -0.949268500932E+02    0.30305E-04   -0.62777E-05  4992   0.309E-02    0.558E-03
DAV:   8    -0.949268504289E+02   -0.33576E-06   -0.70163E-06  3400   0.149E-02
  10 F= -.97898086E+02 E0= -.97898530E+02  d E =-.980321E-03
       N       E                     dE             d eps       ncg     rms          rms(c)
DAV:   1    -0.949270127421E+02   -0.16265E-03   -0.88818E-02  5440   0.811E-01    0.767E-02
DAV:   2    -0.949272747163E+02   -0.26197E-03   -0.28091E-03  6984   0.180E-01    0.446E-02
DAV:   3    -0.949273172841E+02   -0.42568E-04   -0.51284E-04  7008   0.133E-01    0.451E-02
DAV:   4    -0.949272727638E+02    0.44520E-04   -0.23971E-04  5960   0.897E-02    0.212E-02
DAV:   5    -0.949272890263E+02   -0.16262E-04   -0.91424E-05  5360   0.414E-02    0.367E-02
DAV:   6    -0.949272722068E+02    0.16820E-04   -0.50011E-05  4976   0.261E-02    0.106E-02
DAV:   7    -0.949272710556E+02    0.11512E-05   -0.61627E-06  3496   0.133E-02
  11 F= -.97898545E+02 E0= -.97898959E+02  d E =-.458671E-03
       N       E                     dE             d eps       ncg     rms          rms(c)
DAV:   1    -0.949264290424E+02    0.84316E-03   -0.39548E-01  5440   0.171E+00    0.161E-01
DAV:   2    -0.949275883255E+02   -0.11593E-02   -0.12415E-02  6872   0.370E-01    0.953E-02
DAV:   3    -0.949277659319E+02   -0.17761E-03   -0.23287E-03  7240   0.283E-01    0.958E-02
DAV:   4    -0.949275731590E+02    0.19277E-03   -0.10891E-03  6976   0.190E-01    0.469E-02
DAV:   5    -0.949276441597E+02   -0.71001E-04   -0.42976E-04  6712   0.864E-02    0.790E-02
DAV:   6    -0.949275656031E+02    0.78557E-04   -0.22154E-04  6032   0.505E-02    0.226E-02
DAV:   7    -0.949275606905E+02    0.49126E-05   -0.29437E-05  5224   0.285E-02
  12 F= -.97898916E+02 E0= -.97899275E+02  d E =-.829717E-03
       N       E                     dE             d eps       ncg     rms          rms(c)
DAV:   1    -0.949276897929E+02   -0.12419E-03   -0.14365E-02  5496   0.312E-01    0.244E-02
DAV:   2    -0.949277336188E+02   -0.43826E-04   -0.47103E-04  6472   0.679E-02    0.141E-02
DAV:   3    -0.949277364809E+02   -0.28621E-05   -0.25411E-05  5096   0.220E-02
  13 F= -.97899117E+02 E0= -.97899466E+02  d E =-.200845E-03
       N       E                     dE             d eps       ncg     rms          rms(c)
DAV:   1    -0.949277323775E+02    0.12413E-05   -0.12873E-01  5440   0.928E-01    0.739E-02
DAV:   2    -0.949280973311E+02   -0.36495E-03   -0.39233E-03  6752   0.193E-01    0.472E-02
DAV:   3    -0.949281521470E+02   -0.54816E-04   -0.38093E-04  6984   0.838E-02    0.629E-02
DAV:   4    -0.949281114934E+02    0.40654E-04   -0.15125E-04  5528   0.529E-02    0.313E-02
DAV:   5    -0.949281135474E+02   -0.20540E-05   -0.28148E-05  4848   0.219E-02
  14 F= -.97899569E+02 E0= -.97899929E+02  d E =-.653287E-03
       N       E                     dE             d eps       ncg     rms          rms(c)
DAV:   1    -0.949267332573E+02    0.13782E-02   -0.51405E-01  5440   0.185E+00    0.146E-01
DAV:   2    -0.949281971434E+02   -0.14639E-02   -0.15680E-02  6672   0.391E-01    0.836E-02
DAV:   3    -0.949283767362E+02   -0.17959E-03   -0.18726E-03  7344   0.244E-01    0.905E-02
DAV:   4    -0.949282466446E+02    0.13009E-03   -0.76490E-04  7104   0.152E-01    0.595E-02
DAV:   5    -0.949283039039E+02   -0.57259E-04   -0.26078E-04  6368   0.545E-02    0.710E-02
DAV:   6    -0.949282493872E+02    0.54517E-04   -0.20666E-04  5800   0.690E-02    0.152E-02
DAV:   7    -0.949282496075E+02   -0.22031E-06   -0.33290E-05  5416   0.321E-02
  15 F= -.97899857E+02 E0= -.97900173E+02  d E =-.940932E-03
       N       E                     dE             d eps       ncg     rms          rms(c)
DAV:   1    -0.949283208737E+02   -0.71486E-04   -0.63057E-02  5440   0.625E-01    0.577E-02
DAV:   2    -0.949285009432E+02   -0.18007E-03   -0.19127E-03  6392   0.131E-01    0.328E-02
DAV:   3    -0.949285199611E+02   -0.19018E-04   -0.31810E-04  6432   0.942E-02    0.325E-02
DAV:   4    -0.949284980780E+02    0.21883E-04   -0.11176E-04  5256   0.610E-02    0.151E-02
DAV:   5    -0.949285063961E+02   -0.83182E-05   -0.37619E-05  4824   0.320E-02
  16 F= -.97900157E+02 E0= -.97900463E+02  d E =-.299619E-03
       N       E                     dE             d eps       ncg     rms          rms(c)
DAV:   1    -0.949272874018E+02    0.12107E-02   -0.56566E-01  5440   0.187E+00    0.173E-01
DAV:   2    -0.949288925362E+02   -0.16051E-02   -0.16905E-02  6968   0.388E-01    0.110E-01
DAV:   3    -0.949290580285E+02   -0.16549E-03   -0.27695E-03  7240   0.279E-01    0.125E-01
DAV:   4    -0.949288523016E+02    0.20573E-03   -0.77613E-04  6456   0.136E-01    0.562E-02
DAV:   5    -0.949289386691E+02   -0.86367E-04   -0.43746E-04  6296   0.887E-02    0.699E-02
DAV:   6    -0.949288664801E+02    0.72189E-04   -0.38100E-04  5984   0.107E-01    0.227E-02
DAV:   7    -0.949288576534E+02    0.88266E-05   -0.59617E-05  5568   0.449E-02
  17 F= -.97900636E+02 E0= -.97900923E+02  d E =-.779388E-03
       N       E                     dE             d eps       ncg     rms          rms(c)
DAV:   1    -0.949287474483E+02    0.11903E-03   -0.36636E-02  5440   0.477E-01    0.439E-02
DAV:   2    -0.949288557795E+02   -0.10833E-03   -0.11502E-03  6400   0.103E-01    0.250E-02
DAV:   3    -0.949288683715E+02   -0.12592E-04   -0.18985E-04  6296   0.736E-02    0.247E-02
DAV:   4    -0.949288550362E+02    0.13335E-04   -0.71356E-05  4608   0.490E-02    0.137E-02
DAV:   5    -0.949288604161E+02   -0.53799E-05   -0.25462E-05  4384   0.218E-02
  18 F= -.97900672E+02 E0= -.97900949E+02  d E =-.814866E-03
       N       E                     dE             d eps       ncg     rms          rms(c)
DAV:   1    -0.949290562012E+02   -0.20117E-03   -0.40660E-03  5472   0.156E-01    0.223E-02
DAV:   2    -0.949290725244E+02   -0.16323E-04   -0.15037E-04  7096   0.507E-02    0.229E-02
DAV:   3    -0.949290699211E+02    0.26033E-05   -0.38542E-05  4808   0.315E-02
  19 F= -.97900876E+02 E0= -.97901155E+02  d E =-.203979E-03
       N       E                     dE             d eps       ncg     rms          rms(c)
DAV:   1    -0.949294497889E+02   -0.37726E-03   -0.37038E-02  5440   0.464E-01    0.660E-02
DAV:   2    -0.949295551922E+02   -0.10540E-03   -0.11551E-03  8136   0.129E-01    0.480E-02
DAV:   3    -0.949295553333E+02   -0.14118E-06   -0.48917E-04  6648   0.130E-01    0.454E-02
DAV:   4    -0.949295307123E+02    0.24621E-04   -0.17591E-04  5840   0.736E-02    0.306E-02
DAV:   5    -0.949295375875E+02   -0.68753E-05   -0.98708E-05  5696   0.338E-02
  20 F= -.97901327E+02 E0= -.97901602E+02  d E =-.655178E-03
       N       E                     dE             d eps       ncg     rms          rms(c)
DAV:   1    -0.949293331276E+02    0.19758E-03   -0.14830E-01  5440   0.928E-01    0.122E-01
DAV:   2    -0.949297158223E+02   -0.38269E-03   -0.42446E-03  7744   0.221E-01    0.935E-02
DAV:   3    -0.949297564494E+02   -0.40627E-04   -0.10761E-03  7088   0.167E-01    0.103E-01
DAV:   4    -0.949296568384E+02    0.99611E-04   -0.37708E-04  6088   0.734E-02    0.474E-02
DAV:   5    -0.949297215219E+02   -0.64684E-04   -0.42949E-04  6416   0.929E-02    0.602E-02
DAV:   6    -0.949296403956E+02    0.81126E-04   -0.26846E-04  5504   0.909E-02    0.126E-02
DAV:   7    -0.949296405882E+02   -0.19263E-06   -0.30035E-05  5136   0.323E-02
  21 F= -.97901398E+02 E0= -.97901679E+02  d E =-.725687E-03
       N       E                     dE             d eps       ncg     rms          rms(c)
DAV:   1    -0.949296569721E+02   -0.16576E-04   -0.29507E-02  5440   0.414E-01    0.546E-02
DAV:   2    -0.949297313626E+02   -0.74391E-04   -0.84695E-04  7816   0.999E-02    0.395E-02
DAV:   3    -0.949297397936E+02   -0.84311E-05   -0.22042E-04  6232   0.738E-02    0.438E-02
DAV:   4    -0.949297196254E+02    0.20168E-04   -0.75961E-05  5744   0.393E-02    0.196E-02
DAV:   5    -0.949297307004E+02   -0.11075E-04   -0.63928E-05  4920   0.343E-02    0.269E-02
DAV:   6    -0.949297178364E+02    0.12864E-04   -0.47676E-05  4232   0.402E-02    0.639E-03
DAV:   7    -0.949297172341E+02    0.60228E-06   -0.59718E-06  3352   0.169E-02
  22 F= -.97901489E+02 E0= -.97901772E+02  d E =-.816807E-03
       N       E                     dE             d eps       ncg     rms          rms(c)
DAV:   1    -0.949298262441E+02   -0.10841E-03   -0.13724E-03  5576   0.939E-02    0.104E-02
DAV:   2    -0.949298304101E+02   -0.41660E-05   -0.46754E-05  5752   0.237E-02
  23 F= -.97901602E+02 E0= -.97901884E+02  d E =-.113565E-03
       N       E                     dE             d eps       ncg     rms          rms(c)
DAV:   1    -0.949301026690E+02   -0.27642E-03   -0.12668E-02  5488   0.283E-01    0.306E-02
DAV:   2    -0.949301434320E+02   -0.40763E-04   -0.41039E-04  7744   0.827E-02    0.257E-02
DAV:   3    -0.949301424536E+02    0.97834E-06   -0.13090E-04  5632   0.663E-02    0.252E-02
DAV:   4    -0.949301350894E+02    0.73642E-05   -0.31707E-05  4680   0.277E-02
  24 F= -.97901908E+02 E0= -.97902207E+02  d E =-.419474E-03
       N       E                     dE             d eps       ncg     rms          rms(c)
DAV:   1    -0.949304586153E+02   -0.31616E-03   -0.50502E-02  5480   0.564E-01    0.603E-02
DAV:   2    -0.949305917388E+02   -0.13312E-03   -0.14752E-03  8008   0.128E-01    0.443E-02
DAV:   3    -0.949306289152E+02   -0.37176E-04   -0.24457E-04  6504   0.548E-02    0.625E-02
DAV:   4    -0.949305843019E+02    0.44613E-04   -0.11889E-04  5688   0.455E-02    0.230E-02
DAV:   5    -0.949305893484E+02   -0.50465E-05   -0.29087E-05  4272   0.346E-02
  25 F= -.97902365E+02 E0= -.97902690E+02  d E =-.876472E-03
       N       E                     dE             d eps       ncg     rms          rms(c)
DAV:   1    -0.949303533038E+02    0.23100E-03   -0.20121E-01  5472   0.113E+00    0.114E-01
DAV:   2    -0.949308421183E+02   -0.48881E-03   -0.56388E-03  8112   0.246E-01    0.643E-02
DAV:   3    -0.949308547559E+02   -0.12638E-04   -0.30362E-04  7648   0.605E-02    0.492E-02
DAV:   4    -0.949309103190E+02   -0.55563E-04   -0.20496E-04  6016   0.516E-02    0.685E-02
DAV:   5    -0.949308585418E+02    0.51777E-04   -0.17586E-04  5344   0.566E-02    0.223E-02
DAV:   6    -0.949308592140E+02   -0.67218E-06   -0.32371E-05  4864   0.320E-02
  26 F= -.97902641E+02 E0= -.97902978E+02  d E =-.115285E-02
       N       E                     dE             d eps       ncg     rms          rms(c)
DAV:   1    -0.949308542518E+02    0.42900E-05   -0.59676E-03  5704   0.197E-01    0.203E-02
DAV:   2    -0.949308730001E+02   -0.18748E-04   -0.19667E-04  7264   0.520E-02    0.130E-02
DAV:   3    -0.949308736422E+02   -0.64209E-06   -0.24685E-05  3800   0.322E-02
  27 F= -.97902655E+02 E0= -.97903001E+02  d E =-.116607E-02
       N       E                     dE             d eps       ncg     rms          rms(c)
DAV:   1    -0.949308687566E+02    0.42434E-05   -0.40285E-04  5872   0.582E-02    0.779E-03
DAV:   2    -0.949308712046E+02   -0.24480E-05   -0.22107E-05  4424   0.222E-02
  28 F= -.97902653E+02 E0= -.97902996E+02  d E =-.116394E-02
       N       E                     dE             d eps       ncg     rms          rms(c)
DAV:   1    -0.949308719045E+02   -0.31478E-05   -0.14601E-04  5688   0.394E-02    0.660E-03
DAV:   2    -0.949308807233E+02   -0.88188E-05   -0.41187E-05  4200   0.399E-02
  29 F= -.97902662E+02 E0= -.97903022E+02  d E =-.117327E-02
       N       E                     dE             d eps       ncg     rms          rms(c)
DAV:   1    -0.949308710044E+02    0.90005E-06   -0.47311E-05  5224   0.319E-02    0.392E-03
DAV:   2    -0.949308724950E+02   -0.14906E-05   -0.73949E-06  3272   0.110E-02
  30 F= -.97902654E+02 E0= -.97902986E+02  d E =-.116514E-02
       N       E                     dE             d eps       ncg     rms          rms(c)
DAV:   1    -0.949308718556E+02   -0.85114E-06   -0.10168E-05  3688   0.109E-02    0.236E-03
DAV:   2    -0.949308726353E+02   -0.77970E-06   -0.27517E-06  2928   0.780E-03
  31 F= -.97902654E+02 E0= -.97902994E+02  d E =-.116522E-02
       N       E                     dE             d eps       ncg     rms          rms(c)
DAV:   1    -0.949309617070E+02   -0.89851E-04   -0.40386E-03  5440   0.161E-01    0.172E-02
DAV:   2    -0.949309732031E+02   -0.11496E-04   -0.12191E-04  6696   0.382E-02    0.100E-02
DAV:   3    -0.949309738963E+02   -0.69317E-06   -0.54441E-06  3224   0.106E-02
  32 F= -.97902749E+02 E0= -.97903082E+02  d E =-.950085E-04
       N       E                     dE             d eps       ncg     rms          rms(c)
DAV:   1    -0.949311484399E+02   -0.17524E-03   -0.37009E-02  5440   0.488E-01    0.549E-02
DAV:   2    -0.949312523142E+02   -0.10387E-03   -0.10709E-03  7408   0.112E-01    0.372E-02
DAV:   3    -0.949312871684E+02   -0.34854E-04   -0.17563E-04  6600   0.459E-02    0.560E-02
DAV:   4    -0.949312531394E+02    0.34029E-04   -0.91980E-05  5008   0.338E-02    0.186E-02
DAV:   5    -0.949312612132E+02   -0.80738E-05   -0.51862E-05  4464   0.490E-02
  33 F= -.97903018E+02 E0= -.97903338E+02  d E =-.363661E-03
       N       E                     dE             d eps       ncg     rms          rms(c)
DAV:   1    -0.949312550791E+02   -0.19397E-05   -0.14769E-01  5440   0.977E-01    0.106E-01
DAV:   2    -0.949316577363E+02   -0.40266E-03   -0.42729E-03  7520   0.222E-01    0.645E-02
DAV:   3    -0.949317465484E+02   -0.88812E-04   -0.49051E-04  7624   0.102E-01    0.792E-02
DAV:   4    -0.949316844485E+02    0.62100E-04   -0.32359E-04  5752   0.790E-02    0.446E-02
DAV:   5    -0.949316741931E+02    0.10255E-04   -0.52233E-05  5592   0.250E-02    0.136E-02
DAV:   6    -0.949316725886E+02    0.16045E-05   -0.12994E-05  3920   0.231E-02
  34 F= -.97903392E+02 E0= -.97903752E+02  d E =-.738031E-03
       N       E                     dE             d eps       ncg     rms          rms(c)
DAV:   1    -0.949303137958E+02    0.13604E-02   -0.59136E-01  5440   0.195E+00    0.211E-01
DAV:   2    -0.949318957259E+02   -0.15819E-02   -0.16735E-02  7424   0.430E-01    0.134E-01
DAV:   3    -0.949322189614E+02   -0.32324E-03   -0.20683E-03  7616   0.171E-01    0.158E-01
DAV:   4    -0.949320188525E+02    0.20011E-03   -0.12223E-03  6648   0.114E-01    0.984E-02
DAV:   5    -0.949320786334E+02   -0.59781E-04   -0.82217E-04  6152   0.137E-01    0.686E-02
DAV:   6    -0.949319551916E+02    0.12344E-03   -0.66008E-04  6168   0.149E-01    0.213E-02
DAV:   7    -0.949319448022E+02    0.10389E-04   -0.76122E-05  5440   0.533E-02    0.857E-03
DAV:   8    -0.949319444754E+02    0.32679E-06   -0.10160E-05  3696   0.177E-02
  35 F= -.97903591E+02 E0= -.97903978E+02  d E =-.937580E-03
       N       E                     dE             d eps       ncg     rms          rms(c)
DAV:   1    -0.949320644666E+02   -0.11966E-03   -0.11756E-02  5440   0.281E-01    0.269E-02
DAV:   2    -0.949321010704E+02   -0.36604E-04   -0.39108E-04  7672   0.707E-02    0.165E-02
DAV:   3    -0.949321019133E+02   -0.84293E-06   -0.11488E-05  3952   0.144E-02
  36 F= -.97903751E+02 E0= -.97904133E+02  d E =-.159052E-03
       N       E                     dE             d eps       ncg     rms          rms(c)
DAV:   1    -0.949321977570E+02   -0.96687E-04   -0.10509E-01  5440   0.838E-01    0.839E-02
DAV:   2    -0.949324931993E+02   -0.29544E-03   -0.30137E-03  7424   0.192E-01    0.620E-02
DAV:   3    -0.949325718346E+02   -0.78635E-04   -0.51609E-04  6976   0.795E-02    0.897E-02
DAV:   4    -0.949324831015E+02    0.88733E-04   -0.21836E-04  5640   0.541E-02    0.289E-02
DAV:   5    -0.949325049105E+02   -0.21809E-04   -0.14781E-04  5272   0.821E-02    0.246E-02
DAV:   6    -0.949324820113E+02    0.22899E-04   -0.10274E-04  4352   0.593E-02    0.812E-03
DAV:   7    -0.949324810471E+02    0.96417E-06   -0.93966E-06  3464   0.125E-02
  37 F= -.97904135E+02 E0= -.97904512E+02  d E =-.543393E-03
       N       E                     dE             d eps       ncg     rms          rms(c)
DAV:   1    -0.949316793076E+02    0.80270E-03   -0.41973E-01  5440   0.168E+00    0.160E-01
DAV:   2    -0.949327807666E+02   -0.11015E-02   -0.11720E-02  7296   0.364E-01    0.957E-02
DAV:   3    -0.949329794487E+02   -0.19868E-03   -0.12514E-03  8184   0.132E-01    0.123E-01
DAV:   4    -0.949328373947E+02    0.14205E-03   -0.67660E-04  6184   0.969E-02    0.667E-02
DAV:   5    -0.949328324895E+02    0.49052E-05   -0.22219E-04  5776   0.657E-02    0.333E-02
DAV:   6    -0.949328248385E+02    0.76510E-05   -0.24501E-04  5616   0.891E-02    0.197E-02
DAV:   7    -0.949328095073E+02    0.15331E-04   -0.71188E-05  4840   0.575E-02    0.628E-03
DAV:   8    -0.949328095254E+02   -0.18132E-07   -0.64588E-06  3400   0.148E-02
  38 F= -.97904475E+02 E0= -.97904840E+02  d E =-.883889E-03
       N       E                     dE             d eps       ncg     rms          rms(c)
DAV:   1    -0.949329686969E+02   -0.15919E-03   -0.13740E-02  5440   0.278E-01    0.633E-02
DAV:   2    -0.949330165362E+02   -0.47839E-04   -0.51898E-04  7304   0.736E-02    0.378E-02
DAV:   3    -0.949330466344E+02   -0.30098E-04   -0.29425E-04  6176   0.101E-01    0.422E-02
DAV:   4    -0.949330084899E+02    0.38144E-04   -0.16158E-04  5488   0.756E-02    0.115E-02
DAV:   5    -0.949330087455E+02   -0.25556E-06   -0.23227E-05  4464   0.299E-02
  39 F= -.97904742E+02 E0= -.97905082E+02  d E =-.266926E-03
       N       E                     dE             d eps       ncg     rms          rms(c)
DAV:   1    -0.949329116802E+02    0.96810E-04   -0.12368E-01  5440   0.834E-01    0.189E-01
DAV:   2    -0.949333421834E+02   -0.43050E-03   -0.45047E-03  7616   0.201E-01    0.126E-01
DAV:   3    -0.949336395644E+02   -0.29738E-03   -0.23006E-03  6904   0.230E-01    0.176E-01
DAV:   4    -0.949333228413E+02    0.31672E-03   -0.11346E-03  5840   0.113E-01    0.762E-02
DAV:   5    -0.949332848218E+02    0.38020E-04   -0.72317E-04  6448   0.133E-01    0.437E-02
DAV:   6    -0.949332313925E+02    0.53429E-04   -0.25919E-04  5688   0.932E-02    0.151E-02
DAV:   7    -0.949332288330E+02    0.25595E-05   -0.21686E-05  4304   0.301E-02
  40 F= -.97905166E+02 E0= -.97905450E+02  d E =-.690444E-03
       N       E                     dE             d eps       ncg     rms          rms(c)
DAV:   1    -0.949333351655E+02   -0.10377E-03   -0.49165E-03  5488   0.172E-01    0.241E-02
DAV:   2    -0.949333524341E+02   -0.17269E-04   -0.19161E-04  6856   0.453E-02    0.134E-02
DAV:   3    -0.949333536492E+02   -0.12151E-05   -0.10022E-05  3728   0.183E-02
  41 F= -.97905341E+02 E0= -.97905608E+02  d E =-.175687E-03
       N       E                     dE             d eps       ncg     rms          rms(c)
DAV:   1    -0.949335117761E+02   -0.15934E-03   -0.43836E-02  5448   0.510E-01    0.749E-02
DAV:   2    -0.949336625765E+02   -0.15080E-03   -0.15496E-03  7840   0.131E-01    0.542E-02
DAV:   3    -0.949337367591E+02   -0.74183E-04   -0.46410E-04  6728   0.104E-01    0.811E-02
DAV:   4    -0.949336475848E+02    0.89174E-04   -0.20284E-04  5488   0.591E-02    0.219E-02
DAV:   5    -0.949336504212E+02   -0.28364E-05   -0.15728E-05  4768   0.223E-02
  42 F= -.97905791E+02 E0= -.97906036E+02  d E =-.625289E-03
       N       E                     dE             d eps       ncg     rms          rms(c)
DAV:   1    -0.949333692489E+02    0.27834E-03   -0.17557E-01  5440   0.102E+00    0.142E-01
DAV:   2    -0.949338883785E+02   -0.51913E-03   -0.58615E-03  7512   0.226E-01    0.782E-02
DAV:   3    -0.949339089610E+02   -0.20583E-04   -0.33532E-04  7336   0.709E-02    0.480E-02
DAV:   4    -0.949339331992E+02   -0.24238E-04   -0.10408E-04  6016   0.630E-02    0.382E-02
DAV:   5    -0.949339345385E+02   -0.13393E-05   -0.13216E-04  5552   0.395E-02    0.390E-02
DAV:   6    -0.949339140256E+02    0.20513E-04   -0.61821E-05  4936   0.326E-02    0.100E-02
DAV:   7    -0.949339131829E+02    0.84265E-06   -0.15906E-05  3912   0.241E-02
  43 F= -.97906360E+02 E0= -.97906535E+02  d E =-.119419E-02
       N       E                     dE             d eps       ncg     rms          rms(c)
DAV:   1    -0.949310086719E+02    0.29054E-02   -0.70164E-01  5440   0.204E+00    0.284E-01
DAV:   2    -0.949330703131E+02   -0.20616E-02   -0.23245E-02  7528   0.434E-01    0.156E-01
DAV:   3    -0.949332606053E+02   -0.19029E-03   -0.20095E-03  8128   0.190E-01    0.117E-01
DAV:   4    -0.949333151098E+02   -0.54505E-04   -0.19364E-03  6720   0.253E-01    0.850E-02
DAV:   5    -0.949331878669E+02    0.12724E-03   -0.94266E-04  6232   0.180E-01    0.430E-02
DAV:   6    -0.949331959993E+02   -0.81324E-05   -0.33474E-04  6112   0.854E-02    0.571E-02
DAV:   7    -0.949331544117E+02    0.41588E-04   -0.11161E-04  5952   0.344E-02    0.119E-02
DAV:   8    -0.949331538778E+02    0.53389E-06   -0.96272E-06  3904   0.140E-02
  44 F= -.97906215E+02 E0= -.97906291E+02  d E =-.104970E-02
       N       E                     dE             d eps       ncg     rms          rms(c)
DAV:   1    -0.949330380570E+02    0.11635E-03   -0.25445E-01  5440   0.123E+00    0.169E-01
DAV:   2    -0.949337879404E+02   -0.74988E-03   -0.83768E-03  7464   0.262E-01    0.924E-02
DAV:   3    -0.949338682479E+02   -0.80307E-04   -0.75145E-04  6848   0.127E-01    0.710E-02
DAV:   4    -0.949338638123E+02    0.44356E-05   -0.70856E-04  6408   0.154E-01    0.474E-02
DAV:   5    -0.949338244500E+02    0.39362E-04   -0.27916E-04  5744   0.106E-01    0.248E-02
DAV:   6    -0.949338257995E+02   -0.13495E-05   -0.97434E-05  5728   0.455E-02
  45 F= -.97906516E+02 E0= -.97906642E+02  d E =-.135052E-02
       N       E                     dE             d eps       ncg     rms          rms(c)
DAV:   1    -0.949338028582E+02    0.21592E-04   -0.48615E-02  5448   0.526E-01    0.834E-02
DAV:   2    -0.949339443795E+02   -0.14152E-03   -0.14865E-03  7704   0.124E-01    0.485E-02
DAV:   3    -0.949339993655E+02   -0.54986E-04   -0.48955E-04  6440   0.124E-01    0.603E-02
DAV:   4    -0.949339346483E+02    0.64717E-04   -0.21141E-04  5736   0.784E-02    0.200E-02
DAV:   5    -0.949339501756E+02   -0.15527E-04   -0.67280E-05  5336   0.309E-02    0.301E-02
DAV:   6    -0.949339346749E+02    0.15501E-04   -0.52337E-05  4680   0.399E-02    0.716E-03
DAV:   7    -0.949339337651E+02    0.90979E-06   -0.53773E-06  3208   0.159E-02
  46 F= -.97906745E+02 E0= -.97906859E+02  d E =-.229040E-03
       N       E                     dE             d eps       ncg     rms          rms(c)
DAV:   1    -0.949333496553E+02    0.58502E-03   -0.23639E-01  5448   0.116E+00    0.182E-01
DAV:   2    -0.949340241224E+02   -0.67447E-03   -0.73041E-03  7232   0.259E-01    0.104E-01
DAV:   3    -0.949342599732E+02   -0.23585E-03   -0.23702E-03  7168   0.264E-01    0.115E-01
DAV:   4    -0.949339907134E+02    0.26926E-03   -0.11809E-03  6344   0.202E-01    0.369E-02
DAV:   5    -0.949340001028E+02   -0.93894E-05   -0.19977E-04  6128   0.794E-02    0.257E-02
DAV:   6    -0.949340009042E+02   -0.80140E-06   -0.10800E-04  5752   0.590E-02    0.294E-02
DAV:   7    -0.949339886520E+02    0.12252E-04   -0.38073E-05  4760   0.259E-02    0.869E-03
DAV:   8    -0.949339887740E+02   -0.12203E-06   -0.55583E-06  3200   0.154E-02
  47 F= -.97907067E+02 E0= -.97907117E+02  d E =-.550317E-03
       N       E                     dE             d eps       ncg     rms          rms(c)
DAV:   1    -0.949337719380E+02    0.21671E-03   -0.51593E-02  5448   0.542E-01    0.840E-02
DAV:   2    -0.949339246780E+02   -0.15274E-03   -0.16472E-03  7624   0.125E-01    0.487E-02
DAV:   3    -0.949339718584E+02   -0.47180E-04   -0.51388E-04  6752   0.126E-01    0.528E-02
DAV:   4    -0.949339151998E+02    0.56659E-04   -0.25272E-04  5888   0.962E-02    0.178E-02
DAV:   5    -0.949339201177E+02   -0.49180E-05   -0.53887E-05  5168   0.409E-02
  48 F= -.97907122E+02 E0= -.97907138E+02  d E =-.605847E-03
       N       E                     dE             d eps       ncg     rms          rms(c)
DAV:   1    -0.949341155615E+02   -0.20036E-03   -0.10047E-02  5648   0.221E-01    0.309E-02
DAV:   2    -0.949341751943E+02   -0.59633E-04   -0.36885E-04  7200   0.635E-02    0.542E-02
DAV:   3    -0.949341391626E+02    0.36032E-04   -0.11178E-04  5272   0.422E-02    0.182E-02
DAV:   4    -0.949341385362E+02    0.62634E-06   -0.15495E-05  3968   0.245E-02
  49 F= -.97907320E+02 E0= -.97907334E+02  d E =-.197406E-03
       N       E                     dE             d eps       ncg     rms          rms(c)
DAV:   1    -0.949345426789E+02   -0.40352E-03   -0.89457E-02  5624   0.644E-01    0.843E-02
DAV:   2    -0.949347491493E+02   -0.20647E-03   -0.22326E-03  7112   0.139E-01    0.509E-02
DAV:   3    -0.949347769847E+02   -0.27835E-04   -0.23458E-04  6752   0.995E-02    0.379E-02
DAV:   4    -0.949347695762E+02    0.74085E-05   -0.24369E-04  5760   0.979E-02    0.277E-02
DAV:   5    -0.949347699738E+02   -0.39765E-06   -0.11637E-04  5376   0.532E-02    0.334E-02
DAV:   6    -0.949347564498E+02    0.13524E-04   -0.46308E-05  4944   0.236E-02    0.114E-02
DAV:   7    -0.949347544787E+02    0.19712E-05   -0.80323E-06  3320   0.133E-02
  50 F= -.97907872E+02 E0= -.97907894E+02  d E =-.750095E-03
       N       E                     dE             d eps       ncg     rms          rms(c)
DAV:   1    -0.949349275337E+02   -0.17108E-03   -0.35862E-01  5616   0.128E+00    0.165E-01
DAV:   2    -0.949357359406E+02   -0.80841E-03   -0.87433E-03  6952   0.262E-01    0.999E-02
DAV:   3    -0.949358874635E+02   -0.15152E-03   -0.13302E-03  7632   0.200E-01    0.781E-02
DAV:   4    -0.949358043582E+02    0.83105E-04   -0.11069E-03  6496   0.199E-01    0.556E-02
DAV:   5    -0.949358475879E+02   -0.43230E-04   -0.46129E-04  6104   0.971E-02    0.784E-02
DAV:   6    -0.949357648022E+02    0.82786E-04   -0.20540E-04  6032   0.472E-02    0.182E-02
DAV:   7    -0.949357618844E+02    0.29178E-05   -0.28717E-05  4984   0.240E-02
  51 F= -.97908752E+02 E0= -.97908775E+02  d E =-.162988E-02
       N       E                     dE             d eps       ncg     rms          rms(c)
DAV:   1    -0.949334990964E+02    0.22657E-02   -0.14335E+00  5696   0.256E+00    0.335E-01
DAV:   2    -0.949367928439E+02   -0.32937E-02   -0.35538E-02  7064   0.531E-01    0.201E-01
DAV:   3    -0.949374227526E+02   -0.62991E-03   -0.56160E-03  7672   0.392E-01    0.159E-01
DAV:   4    -0.949370447818E+02    0.37797E-03   -0.45068E-03  7112   0.384E-01    0.113E-01
DAV:   5    -0.949372450643E+02   -0.20028E-03   -0.18826E-03  6912   0.182E-01    0.162E-01
DAV:   6    -0.949368938444E+02    0.35122E-03   -0.85500E-04  6776   0.953E-02    0.373E-02
DAV:   7    -0.949368820236E+02    0.11821E-04   -0.12360E-04  6384   0.468E-02    0.150E-02
DAV:   8    -0.949368809164E+02    0.11071E-05   -0.20136E-05  4816   0.263E-02
  52 F= -.97909611E+02 E0= -.97909637E+02  d E =-.248897E-02
       N       E                     dE             d eps       ncg     rms          rms(c)
DAV:   1    -0.949370163490E+02   -0.13433E-03   -0.40675E-03  5400   0.139E-01    0.235E-02
DAV:   2    -0.949370279008E+02   -0.11552E-04   -0.12296E-04  6328   0.347E-02    0.136E-02
DAV:   3    -0.949370309145E+02   -0.30137E-05   -0.10638E-05  3904   0.175E-02
  53 F= -.97909751E+02 E0= -.97909773E+02  d E =-.140269E-03
       N       E                     dE             d eps       ncg     rms          rms(c)
DAV:   1    -0.949373386154E+02   -0.31071E-03   -0.36247E-02  5544   0.409E-01    0.713E-02
DAV:   2    -0.949374349593E+02   -0.96344E-04   -0.98833E-04  7312   0.919E-02    0.492E-02
DAV:   3    -0.949375145529E+02   -0.79594E-04   -0.39036E-04  6416   0.976E-02    0.772E-02
DAV:   4    -0.949374260244E+02    0.88528E-04   -0.21054E-04  5512   0.637E-02    0.189E-02
DAV:   5    -0.949374355318E+02   -0.95074E-05   -0.40828E-05  4648   0.341E-02
  54 F= -.97910127E+02 E0= -.97910136E+02  d E =-.515666E-03
       N       E                     dE             d eps       ncg     rms          rms(c)
DAV:   1    -0.949376818276E+02   -0.25580E-03   -0.14494E-01  5624   0.824E-01    0.135E-01
DAV:   2    -0.949380221722E+02   -0.34034E-03   -0.37685E-03  7312   0.163E-01    0.776E-02
DAV:   3    -0.949381076583E+02   -0.85486E-04   -0.44417E-04  6600   0.108E-01    0.820E-02
DAV:   4    -0.949380517558E+02    0.55903E-04   -0.35430E-04  5992   0.814E-02    0.492E-02
DAV:   5    -0.949380895972E+02   -0.37841E-04   -0.25787E-04  5584   0.794E-02    0.432E-02
DAV:   6    -0.949380307197E+02    0.58878E-04   -0.18130E-04  4768   0.798E-02    0.520E-03
DAV:   7    -0.949380314562E+02   -0.73649E-06   -0.86721E-06  4112   0.138E-02
  55 F= -.97910664E+02 E0= -.97910703E+02  d E =-.105302E-02
       N       E                     dE             d eps       ncg     rms          rms(c)
DAV:   1    -0.949371235794E+02    0.90714E-03   -0.57975E-01  5616   0.163E+00    0.275E-01
DAV:   2    -0.949384425516E+02   -0.13190E-02   -0.14663E-02  7272   0.315E-01    0.155E-01
DAV:   3    -0.949387542445E+02   -0.31169E-03   -0.16454E-03  7744   0.174E-01    0.158E-01
DAV:   4    -0.949386015987E+02    0.15265E-03   -0.13300E-03  6264   0.131E-01    0.106E-01
DAV:   5    -0.949386853860E+02   -0.83787E-04   -0.97478E-04  6528   0.157E-01    0.723E-02
DAV:   6    -0.949384957830E+02    0.18960E-03   -0.65886E-04  5912   0.152E-01    0.109E-02
DAV:   7    -0.949384971529E+02   -0.13699E-05   -0.28735E-05  4968   0.235E-02
  56 F= -.97911012E+02 E0= -.97911065E+02  d E =-.140131E-02
       N       E                     dE             d eps       ncg     rms          rms(c)
DAV:   1    -0.949384421952E+02    0.53588E-04   -0.18798E-02  5416   0.296E-01    0.487E-02
DAV:   2    -0.949384883535E+02   -0.46158E-04   -0.49385E-04  6976   0.630E-02    0.279E-02
DAV:   3    -0.949385066836E+02   -0.18330E-04   -0.70113E-05  5720   0.320E-02    0.395E-02
DAV:   4    -0.949384904154E+02    0.16268E-04   -0.57716E-05  5008   0.244E-02    0.154E-02
DAV:   5    -0.949384935969E+02   -0.31815E-05   -0.32016E-05  3880   0.338E-02
  57 F= -.97911030E+02 E0= -.97911099E+02  d E =-.141900E-02
       N       E                     dE             d eps       ncg     rms          rms(c)
DAV:   1    -0.949386206219E+02   -0.13021E-03   -0.97393E-03  5536   0.212E-01    0.229E-02
DAV:   2    -0.949386451061E+02   -0.24484E-04   -0.25811E-04  6568   0.504E-02    0.141E-02
DAV:   3    -0.949386479638E+02   -0.28577E-05   -0.35764E-05  4432   0.361E-02
  58 F= -.97911178E+02 E0= -.97911200E+02  d E =-.147442E-03
       N       E                     dE             d eps       ncg     rms          rms(c)
DAV:   1    -0.949388723433E+02   -0.22724E-03   -0.87680E-02  5608   0.621E-01    0.725E-02
DAV:   2    -0.949390525420E+02   -0.18020E-03   -0.19412E-03  7272   0.116E-01    0.478E-02
DAV:   3    -0.949390918314E+02   -0.39289E-04   -0.24562E-04  6552   0.572E-02    0.647E-02
DAV:   4    -0.949390509027E+02    0.40929E-04   -0.15635E-04  5792   0.387E-02    0.274E-02
DAV:   5    -0.949390634978E+02   -0.12595E-04   -0.11286E-04  4736   0.561E-02    0.215E-02
DAV:   6    -0.949390461678E+02    0.17330E-04   -0.71673E-05  4368   0.534E-02    0.553E-03
DAV:   7    -0.949390459017E+02    0.26613E-06   -0.62661E-06  3536   0.161E-02
  59 F= -.97911555E+02 E0= -.97911581E+02  d E =-.524411E-03
       N       E                     dE             d eps       ncg     rms          rms(c)
DAV:   1    -0.949388612151E+02    0.18495E-03   -0.35070E-01  5440   0.123E+00    0.137E-01
DAV:   2    -0.949395607764E+02   -0.69956E-03   -0.75409E-03  7272   0.226E-01    0.807E-02
DAV:   3    -0.949396347878E+02   -0.74011E-04   -0.89102E-04  7616   0.165E-01    0.680E-02
DAV:   4    -0.949395769297E+02    0.57858E-04   -0.67492E-04  6096   0.146E-01    0.444E-02
DAV:   5    -0.949396115634E+02   -0.34634E-04   -0.30048E-04  5984   0.742E-02    0.651E-02
DAV:   6    -0.949395542926E+02    0.57271E-04   -0.14075E-04  5720   0.386E-02    0.152E-02
DAV:   7    -0.949395533907E+02    0.90194E-06   -0.19480E-05  4704   0.237E-02
  60 F= -.97912019E+02 E0= -.97912014E+02  d E =-.989306E-03
       N       E                     dE             d eps       ncg     rms          rms(c)
DAV:   1    -0.949365546569E+02    0.29996E-02   -0.14037E+00  5440   0.246E+00    0.279E-01
DAV:   2    -0.949393528942E+02   -0.27982E-02   -0.30175E-02  7480   0.450E-01    0.160E-01
DAV:   3    -0.949396709113E+02   -0.31802E-03   -0.37025E-03  7896   0.320E-01    0.136E-01
DAV:   4    -0.949394347173E+02    0.23619E-03   -0.26703E-03  6304   0.290E-01    0.879E-02
DAV:   5    -0.949395847108E+02   -0.14999E-03   -0.11979E-03  6480   0.146E-01    0.130E-01
DAV:   6    -0.949393551146E+02    0.22960E-03   -0.57335E-04  6224   0.782E-02    0.315E-02
DAV:   7    -0.949393518130E+02    0.33016E-05   -0.84601E-05  6072   0.468E-02
  61 F= -.97911730E+02 E0= -.97911663E+02  d E =-.699416E-03
       N       E                     dE             d eps       ncg     rms          rms(c)
DAV:   1    -0.949384036251E+02    0.95149E-03   -0.66466E-01  5440   0.169E+00    0.185E-01
DAV:   2    -0.949396718584E+02   -0.12682E-02   -0.13818E-02  7440   0.315E-01    0.109E-01
DAV:   3    -0.949398236559E+02   -0.15180E-03   -0.16298E-03  7768   0.232E-01    0.913E-02
DAV:   4    -0.949397087796E+02    0.11488E-03   -0.12828E-03  6280   0.193E-01    0.587E-02
DAV:   5    -0.949397745698E+02   -0.65790E-04   -0.54008E-04  6072   0.975E-02    0.893E-02
DAV:   6    -0.949396668999E+02    0.10767E-03   -0.25099E-04  5840   0.514E-02    0.171E-02
DAV:   7    -0.949396686649E+02   -0.17651E-05   -0.30695E-05  4976   0.256E-02
  62 F= -.97912108E+02 E0= -.97912087E+02  d E =-.107744E-02
       N       E                     dE             d eps       ncg     rms          rms(c)
DAV:   1    -0.949398725865E+02   -0.20569E-03   -0.63494E-02  5440   0.494E-01    0.645E-02
DAV:   2    -0.949400062712E+02   -0.13368E-03   -0.14316E-03  6704   0.977E-02    0.376E-02
DAV:   3    -0.949400264415E+02   -0.20170E-04   -0.28442E-04  6240   0.950E-02    0.393E-02
DAV:   4    -0.949399981317E+02    0.28310E-04   -0.12041E-04  5456   0.667E-02    0.155E-02
DAV:   5    -0.949400017099E+02   -0.35782E-05   -0.26053E-05  4896   0.276E-02
  63 F= -.97912449E+02 E0= -.97912412E+02  d E =-.341554E-03
       N       E                     dE             d eps       ncg     rms          rms(c)
DAV:   1    -0.949397467179E+02    0.25141E-03   -0.57287E-01  5440   0.148E+00    0.198E-01
DAV:   2    -0.949409283545E+02   -0.11816E-02   -0.12640E-02  7256   0.266E-01    0.122E-01
DAV:   3    -0.949412087375E+02   -0.28038E-03   -0.24532E-03  7040   0.222E-01    0.167E-01
DAV:   4    -0.949409079263E+02    0.30081E-03   -0.93785E-04  5992   0.115E-01    0.686E-02
DAV:   5    -0.949410177515E+02   -0.10983E-03   -0.80142E-04  6568   0.146E-01    0.721E-02
DAV:   6    -0.949408974292E+02    0.12032E-03   -0.51982E-04  5864   0.128E-01    0.202E-02
DAV:   7    -0.949408914055E+02    0.60236E-05   -0.56391E-05  5592   0.435E-02
  64 F= -.97913362E+02 E0= -.97913290E+02  d E =-.125471E-02
       N       E                     dE             d eps       ncg     rms          rms(c)
DAV:   1    -0.949376114581E+02    0.32860E-02   -0.22886E+00  5440   0.296E+00    0.401E-01
DAV:   2    -0.949423637232E+02   -0.47523E-02   -0.51540E-02  6976   0.544E-01    0.225E-01
DAV:   3    -0.949431953092E+02   -0.83159E-03   -0.10670E-02  7656   0.515E-01    0.231E-01
DAV:   4    -0.949422292158E+02    0.96609E-03   -0.46263E-03  6608   0.404E-01    0.103E-01
DAV:   5    -0.949424928702E+02   -0.26365E-03   -0.14904E-03  6672   0.199E-01    0.113E-01
DAV:   6    -0.949423703608E+02    0.12251E-03   -0.11034E-03  6704   0.154E-01    0.864E-02
DAV:   7    -0.949422786045E+02    0.91756E-04   -0.27905E-04  7016   0.557E-02    0.206E-02
DAV:   8    -0.949422786018E+02    0.27285E-08   -0.32713E-05  5120   0.277E-02
  65 F= -.97914788E+02 E0= -.97914640E+02  d E =-.267998E-02
       N       E                     dE             d eps       ncg     rms          rms(c)
DAV:   1    -0.949237170402E+02    0.18562E-01   -0.91210E+00  5440   0.590E+00    0.855E-01
DAV:   2    -0.949440853908E+02   -0.20368E-01   -0.21978E-01  7200   0.112E+00    0.464E-01
DAV:   3    -0.949470860561E+02   -0.30007E-02   -0.44486E-02  7720   0.101E+00    0.468E-01
DAV:   4    -0.949432058533E+02    0.38802E-02   -0.18685E-02  6872   0.765E-01    0.230E-01
DAV:   5    -0.949442662235E+02   -0.10604E-02   -0.61384E-03  7328   0.398E-01    0.234E-01
DAV:   6    -0.949439118514E+02    0.35437E-03   -0.51927E-03  7136   0.320E-01    0.211E-01
DAV:   7    -0.949433856342E+02    0.52622E-03   -0.15760E-03  7136   0.125E-01    0.478E-02
DAV:   8    -0.949433786075E+02    0.70268E-05   -0.18022E-04  6208   0.627E-02    0.221E-02
DAV:   9    -0.949433756346E+02    0.29728E-05   -0.32592E-05  5064   0.365E-02
  66 F= -.97915925E+02 E0= -.97915641E+02  d E =-.381724E-02
       N       E                     dE             d eps       ncg     rms          rms(c)
DAV:   1    -0.949435327234E+02   -0.15412E-03   -0.24793E-02  5304   0.310E-01    0.370E-02
DAV:   2    -0.949435877653E+02   -0.55042E-04   -0.57770E-04  6656   0.588E-02    0.221E-02
DAV:   3    -0.949435985293E+02   -0.10764E-04   -0.68827E-05  5560   0.423E-02    0.269E-02
DAV:   4    -0.949435899953E+02    0.85340E-05   -0.41104E-05  4544   0.353E-02
  67 F= -.97916144E+02 E0= -.97915857E+02  d E =-.219301E-03
       N       E                     dE             d eps       ncg     rms          rms(c)
DAV:   1    -0.949437351252E+02   -0.13660E-03   -0.22124E-01  5440   0.918E-01    0.111E-01
DAV:   2    -0.949441681955E+02   -0.43307E-03   -0.47201E-03  6864   0.161E-01    0.659E-02
DAV:   3    -0.949442582774E+02   -0.90082E-04   -0.50190E-04  6640   0.685E-02    0.847E-02
DAV:   4    -0.949441976742E+02    0.60603E-04   -0.30978E-04  6056   0.628E-02    0.447E-02
DAV:   5    -0.949442013584E+02   -0.36842E-05   -0.11624E-04  5368   0.653E-02    0.192E-02
DAV:   6    -0.949441962134E+02    0.51450E-05   -0.88949E-05  4640   0.623E-02
  68 F= -.97916764E+02 E0= -.97916476E+02  d E =-.839508E-03
       N       E                     dE             d eps       ncg     rms          rms(c)
DAV:   1    -0.949434538004E+02    0.74756E-03   -0.88630E-01  5440   0.184E+00    0.227E-01
DAV:   2    -0.949452471417E+02   -0.17933E-02   -0.19640E-02  7128   0.327E-01    0.121E-01
DAV:   3    -0.949454564576E+02   -0.20932E-03   -0.24324E-03  7416   0.252E-01    0.114E-01
DAV:   4    -0.949452903971E+02    0.16606E-03   -0.11996E-03  6080   0.204E-01    0.658E-02
DAV:   5    -0.949453744110E+02   -0.84014E-04   -0.50616E-04  6104   0.118E-01    0.670E-02
DAV:   6    -0.949453340834E+02    0.40328E-04   -0.36963E-04  6200   0.810E-02    0.508E-02
DAV:   7    -0.949453038973E+02    0.30186E-04   -0.99086E-05  5632   0.332E-02    0.133E-02
DAV:   8    -0.949453016401E+02    0.22572E-05   -0.99186E-06  4072   0.175E-02
  69 F= -.97917894E+02 E0= -.97917552E+02  d E =-.196927E-02
       N       E                     dE             d eps       ncg     rms          rms(c)
DAV:   1    -0.949395844134E+02    0.57195E-02   -0.35378E+00  5440   0.367E+00    0.470E-01
DAV:   2    -0.949469405790E+02   -0.73562E-02   -0.80337E-02  6976   0.642E-01    0.245E-01
DAV:   3    -0.949477243222E+02   -0.78374E-03   -0.97132E-03  7784   0.474E-01    0.223E-01
DAV:   4    -0.949471405157E+02    0.58381E-03   -0.49013E-03  6480   0.431E-01    0.143E-01
DAV:   5    -0.949475850699E+02   -0.44455E-03   -0.24493E-03  6488   0.242E-01    0.175E-01
DAV:   6    -0.949472525110E+02    0.33256E-03   -0.16840E-03  6696   0.150E-01    0.957E-02
DAV:   7    -0.949471617166E+02    0.90794E-04   -0.37894E-04  6640   0.732E-02    0.272E-02
DAV:   8    -0.949471522899E+02    0.94267E-05   -0.61927E-05  6240   0.392E-02
  70 F= -.97919778E+02 E0= -.97919374E+02  d E =-.385292E-02
       N       E                     dE             d eps       ncg     rms          rms(c)
DAV:   1    -0.949168386816E+02    0.30323E-01   -0.14057E+01  5440   0.734E+00    0.104E+00
DAV:   2    -0.949490818982E+02   -0.32243E-01   -0.35326E-01  7320   0.132E+00    0.522E-01
DAV:   3    -0.949515166857E+02   -0.24348E-02   -0.40164E-02  7800   0.942E-01    0.470E-01
DAV:   4    -0.949492698244E+02    0.22469E-02   -0.19793E-02  6840   0.761E-01    0.330E-01
DAV:   5    -0.949509309371E+02   -0.16611E-02   -0.98719E-03  6992   0.484E-01    0.355E-01
DAV:   6    -0.949499979345E+02    0.93300E-03   -0.75862E-03  7416   0.324E-01    0.254E-01
DAV:   7    -0.949493715754E+02    0.62636E-03   -0.23325E-03  7232   0.176E-01    0.635E-02
DAV:   8    -0.949493193536E+02    0.52222E-04   -0.34589E-04  6896   0.904E-02    0.261E-02
DAV:   9    -0.949493152317E+02    0.41220E-05   -0.61823E-05  5712   0.341E-02
  71 F= -.97921933E+02 E0= -.97921421E+02  d E =-.600790E-02
       N       E                     dE             d eps       ncg     rms          rms(c)
DAV:   1    -0.947930917689E+02    0.15623E+00   -0.55259E+01  5440   0.147E+01    0.268E+00
DAV:   2    -0.949506179236E+02   -0.15753E+00   -0.17368E+00  7368   0.283E+00    0.121E+00
DAV:   3    -0.949564669724E+02   -0.58490E-02   -0.19453E-01  7352   0.180E+00    0.110E+00
DAV:   4    -0.949464067458E+02    0.10060E-01   -0.84421E-02  7608   0.160E+00    0.857E-01
DAV:   5    -0.949523851075E+02   -0.59784E-02   -0.39810E-02  7560   0.928E-01    0.778E-01
DAV:   6    -0.949515493107E+02    0.83580E-03   -0.34304E-02  7872   0.733E-01    0.702E-01
DAV:   7    -0.949471556702E+02    0.43936E-02   -0.16184E-02  7216   0.434E-01    0.164E-01
DAV:   8    -0.949468525892E+02    0.30308E-03   -0.21707E-03  7120   0.211E-01    0.704E-02
DAV:   9    -0.949468213854E+02    0.31204E-04   -0.34583E-04  6776   0.863E-02    0.439E-02
DAV:  10    -0.949468265326E+02   -0.51472E-05   -0.65112E-05  5888   0.397E-02
  72 F= -.97918986E+02 E0= -.97918297E+02  d E =-.306106E-02
       N       E                     dE             d eps       ncg     rms          rms(c)
DAV:   1    -0.948703683336E+02    0.76453E-01   -0.35022E+01  5440   0.118E+01    0.148E+00
DAV:   2    -0.949458216348E+02   -0.75453E-01   -0.81333E-01  7104   0.209E+00    0.742E-01
DAV:   3    -0.949512203666E+02   -0.53987E-02   -0.60246E-02  7576   0.119E+00    0.535E-01
DAV:   4    -0.949542095873E+02   -0.29892E-02   -0.47862E-02  8000   0.108E+00    0.449E-01
DAV:   5    -0.949524738966E+02    0.17357E-02   -0.27993E-02  6928   0.934E-01    0.485E-01
DAV:   6    -0.949499418682E+02    0.25320E-02   -0.10125E-02  7608   0.291E-01    0.175E-01
DAV:   7    -0.949495945053E+02    0.34736E-03   -0.15096E-03  6720   0.130E-01    0.397E-02
DAV:   8    -0.949495908327E+02    0.36726E-05   -0.26047E-04  6504   0.749E-02    0.229E-02
DAV:   9    -0.949495935950E+02   -0.27623E-05   -0.50606E-05  5888   0.306E-02
  73 F= -.97922171E+02 E0= -.97921615E+02  d E =-.624580E-02
       N       E                     dE             d eps       ncg     rms          rms(c)
DAV:   1    -0.949502600104E+02   -0.66918E-03   -0.13668E-01  5440   0.718E-01    0.787E-02
DAV:   2    -0.949505435367E+02   -0.28353E-03   -0.30397E-03  7288   0.132E-01    0.449E-02
DAV:   3    -0.949505508481E+02   -0.73114E-05   -0.13857E-04  6360   0.397E-02    0.334E-02
DAV:   4    -0.949505830556E+02   -0.32207E-04   -0.15218E-04  5752   0.596E-02    0.490E-02
DAV:   5    -0.949505521590E+02    0.30897E-04   -0.10019E-04  5320   0.432E-02    0.140E-02
DAV:   6    -0.949505492328E+02    0.29263E-05   -0.16409E-05  4304   0.225E-02
  74 F= -.97923076E+02 E0= -.97922499E+02  d E =-.905199E-03
       N       E                     dE             d eps       ncg     rms          rms(c)
DAV:   1    -0.949503508080E+02    0.20135E-03   -0.12332E+00  5440   0.216E+00    0.242E-01
DAV:   2    -0.949528630035E+02   -0.25122E-02   -0.27038E-02  7040   0.367E-01    0.129E-01
DAV:   3    -0.949530026750E+02   -0.13967E-03   -0.17282E-03  7512   0.151E-01    0.964E-02
DAV:   4    -0.949532106448E+02   -0.20797E-03   -0.13996E-03  6464   0.209E-01    0.114E-01
DAV:   5    -0.949530622365E+02    0.14841E-03   -0.86665E-04  6072   0.130E-01    0.691E-02
DAV:   6    -0.949530047641E+02    0.57472E-04   -0.29616E-04  6072   0.820E-02    0.290E-02
DAV:   7    -0.949529943379E+02    0.10426E-04   -0.84090E-05  5456   0.548E-02    0.129E-02
DAV:   8    -0.949529918016E+02    0.25363E-05   -0.95549E-06  3984   0.190E-02
  75 F= -.97925354E+02 E0= -.97924744E+02  d E =-.318312E-02
       N       E                     dE             d eps       ncg     rms          rms(c)
DAV:   1    -0.949450509648E+02    0.79434E-02   -0.49273E+00  5440   0.432E+00    0.510E-01
DAV:   2    -0.949556714240E+02   -0.10620E-01   -0.11369E-01  7296   0.762E-01    0.266E-01
DAV:   3    -0.949562655214E+02   -0.59410E-03   -0.78093E-03  7960   0.390E-01    0.211E-01
DAV:   4    -0.949565054367E+02   -0.23992E-03   -0.56947E-03  6752   0.420E-01    0.197E-01
DAV:   5    -0.949565805303E+02   -0.75094E-04   -0.32851E-03  6688   0.249E-01    0.199E-01
DAV:   6    -0.949561048019E+02    0.47573E-03   -0.16375E-03  6376   0.150E-01    0.660E-02
DAV:   7    -0.949560720658E+02    0.32736E-04   -0.34778E-04  6816   0.106E-01    0.262E-02
DAV:   8    -0.949560640348E+02    0.80310E-05   -0.49131E-05  5520   0.376E-02
  76 F= -.97928028E+02 E0= -.97927343E+02  d E =-.585722E-02
       N       E                     dE             d eps       ncg     rms          rms(c)
DAV:   1    -0.949571663372E+02   -0.10943E-02   -0.80485E-01  5592   0.174E+00    0.206E-01
DAV:   2    -0.949589925265E+02   -0.18262E-02   -0.19466E-02  7232   0.366E-01    0.121E-01
DAV:   3    -0.949591587655E+02   -0.16624E-03   -0.33614E-03  7264   0.324E-01    0.117E-01
DAV:   4    -0.949588820395E+02    0.27673E-03   -0.12551E-03  6256   0.212E-01    0.510E-02
DAV:   5    -0.949589062470E+02   -0.24207E-04   -0.25814E-04  6952   0.774E-02    0.294E-02
DAV:   6    -0.949589022149E+02    0.40320E-05   -0.10380E-04  6496   0.577E-02    0.219E-02
DAV:   7    -0.949589000698E+02    0.21451E-05   -0.45649E-05  4928   0.312E-02
  77 F= -.97930591E+02 E0= -.97929854E+02  d E =-.256323E-02
       N       E                     dE             d eps       ncg     rms          rms(c)
DAV:   1    -0.949586267897E+02    0.27543E-03   -0.99265E-01  5592   0.193E+00    0.229E-01
DAV:   2    -0.949608758005E+02   -0.22490E-02   -0.24017E-02  7232   0.397E-01    0.136E-01
DAV:   3    -0.949610788092E+02   -0.20301E-03   -0.39349E-03  7200   0.347E-01    0.136E-01
DAV:   4    -0.949607442983E+02    0.33451E-03   -0.14093E-03  6256   0.226E-01    0.603E-02
DAV:   5    -0.949608204210E+02   -0.76123E-04   -0.37895E-04  7616   0.642E-02    0.651E-02
DAV:   6    -0.949607857230E+02    0.34698E-04   -0.36199E-04  5936   0.874E-02    0.413E-02
DAV:   7    -0.949607598393E+02    0.25884E-04   -0.96339E-05  5568   0.536E-02    0.105E-02
DAV:   8    -0.949607613221E+02   -0.14828E-05   -0.89112E-06  4072   0.158E-02
  78 F= -.97932133E+02 E0= -.97931361E+02  d E =-.410565E-02
       N       E                     dE             d eps       ncg     rms          rms(c)
DAV:   1    -0.949516731527E+02    0.90867E-02   -0.39745E+00  5592   0.388E+00    0.474E-01
DAV:   2    -0.949609390710E+02   -0.92659E-02   -0.98461E-02  7352   0.815E-01    0.275E-01
DAV:   3    -0.949617194576E+02   -0.78039E-03   -0.17172E-02  7120   0.712E-01    0.266E-01
DAV:   4    -0.949602842960E+02    0.14352E-02   -0.63170E-03  6968   0.469E-01    0.116E-01
DAV:   5    -0.949603712163E+02   -0.86920E-04   -0.12110E-03  7848   0.158E-01    0.640E-02
DAV:   6    -0.949603403202E+02    0.30896E-04   -0.37536E-04  6872   0.102E-01    0.315E-02
DAV:   7    -0.949603540880E+02   -0.13768E-04   -0.12323E-04  6760   0.512E-02    0.295E-02
DAV:   8    -0.949603480980E+02    0.59900E-05   -0.74888E-05  5088   0.461E-02
  79 F= -.97931031E+02 E0= -.97930158E+02  d E =-.300288E-02
       N       E                     dE             d eps       ncg     rms          rms(c)
DAV:   1    -0.949570198572E+02    0.33342E-02   -0.20201E+00  5584   0.277E+00    0.313E-01
DAV:   2    -0.949614111082E+02   -0.43913E-02   -0.47663E-02  7352   0.570E-01    0.187E-01
DAV:   3    -0.949618371955E+02   -0.42609E-03   -0.72982E-03  7248   0.493E-01    0.188E-01
DAV:   4    -0.949611818182E+02    0.65538E-03   -0.26321E-03  6792   0.288E-01    0.863E-02
DAV:   5    -0.949612627444E+02   -0.80926E-04   -0.57863E-04  7544   0.910E-02    0.533E-02
DAV:   6    -0.949612650629E+02   -0.23185E-05   -0.31224E-04  6416   0.736E-02    0.516E-02
DAV:   7    -0.949612365564E+02    0.28506E-04   -0.16698E-04  5992   0.631E-02    0.199E-02
DAV:   8    -0.949612326386E+02    0.39178E-05   -0.23884E-05  4480   0.281E-02
  80 F= -.97932413E+02 E0= -.97931620E+02  d E =-.438560E-02
       N       E                     dE             d eps       ncg     rms          rms(c)
DAV:   1    -0.949609438757E+02    0.29268E-03   -0.10224E+00  5440   0.204E+00    0.220E-01
DAV:   2    -0.949633025964E+02   -0.23587E-02   -0.25166E-02  6888   0.386E-01    0.127E-01
DAV:   3    -0.949634636723E+02   -0.16108E-03   -0.20503E-03  7272   0.221E-01    0.101E-01
DAV:   4    -0.949634109711E+02    0.52701E-04   -0.11466E-03  6448   0.212E-01    0.807E-02
DAV:   5    -0.949633839705E+02    0.27001E-04   -0.31678E-04  6144   0.893E-02    0.315E-02
DAV:   6    -0.949634002716E+02   -0.16301E-04   -0.17498E-04  6296   0.512E-02    0.400E-02
DAV:   7    -0.949633786860E+02    0.21586E-04   -0.95417E-05  5472   0.514E-02    0.130E-02
DAV:   8    -0.949633760959E+02    0.25900E-05   -0.95131E-06  3920   0.205E-02
  81 F= -.97934255E+02 E0= -.97933429E+02  d E =-.184199E-02
       N       E                     dE             d eps       ncg     rms          rms(c)
DAV:   1    -0.949486280517E+02    0.14751E-01   -0.73795E+00  5440   0.548E+00    0.643E-01
DAV:   2    -0.949667942180E+02   -0.18166E-01   -0.19277E-01  7144   0.107E+00    0.352E-01
DAV:   3    -0.949679314013E+02   -0.11372E-02   -0.16560E-02  7368   0.622E-01    0.286E-01
DAV:   4    -0.949673190105E+02    0.61239E-03   -0.85627E-03  6952   0.530E-01    0.226E-01
DAV:   5    -0.949671849360E+02    0.13407E-03   -0.24966E-03  7160   0.272E-01    0.847E-02
DAV:   6    -0.949672550410E+02   -0.70105E-04   -0.10946E-03  7728   0.172E-01    0.736E-02
DAV:   7    -0.949672179794E+02    0.37062E-04   -0.54935E-04  7152   0.107E-01    0.560E-02
DAV:   8    -0.949671764689E+02    0.41511E-04   -0.13105E-04  6608   0.500E-02    0.197E-02
DAV:   9    -0.949671747474E+02    0.17216E-05   -0.27175E-05  5088   0.275E-02
  82 F= -.97937166E+02 E0= -.97936266E+02  d E =-.475273E-02
       N       E                     dE             d eps       ncg     rms          rms(c)
DAV:   1    -0.948842435857E+02    0.82933E-01   -0.29304E+01  5440   0.109E+01    0.153E+00
DAV:   2    -0.949660512085E+02   -0.81808E-01   -0.86882E-01  7344   0.225E+00    0.755E-01
DAV:   3    -0.949702243644E+02   -0.41732E-02   -0.79441E-02  7328   0.134E+00    0.652E-01
DAV:   4    -0.949663888614E+02    0.38355E-02   -0.35524E-02  7096   0.110E+00    0.520E-01
DAV:   5    -0.949662724916E+02    0.11637E-03   -0.91416E-03  7400   0.505E-01    0.264E-01
DAV:   6    -0.949665413960E+02   -0.26890E-03   -0.52904E-03  7416   0.399E-01    0.146E-01
DAV:   7    -0.949665370909E+02    0.43051E-05   -0.30667E-03  7360   0.249E-01    0.146E-01
DAV:   8    -0.949662590079E+02    0.27808E-03   -0.88591E-04  7392   0.136E-01    0.488E-02
DAV:   9    -0.949662415501E+02    0.17458E-04   -0.14204E-04  6112   0.680E-02    0.241E-02
DAV:  10    -0.949662470158E+02   -0.54657E-05   -0.38351E-05  5616   0.266E-02
  83 F= -.97934229E+02 E0= -.97933190E+02  d E =-.181542E-02
       N       E                     dE             d eps       ncg     rms          rms(c)
DAV:   1    -0.949258984426E+02    0.40343E-01   -0.16848E+01  5440   0.834E+00    0.890E-01
DAV:   2    -0.949666441964E+02   -0.40746E-01   -0.43246E-01  7112   0.161E+00    0.487E-01
DAV:   3    -0.949687508533E+02   -0.21067E-02   -0.26795E-02  7512   0.819E-01    0.358E-01
DAV:   4    -0.949693386342E+02   -0.58778E-03   -0.17573E-02  7272   0.726E-01    0.324E-01
DAV:   5    -0.949678684219E+02    0.14702E-02   -0.58262E-03  7376   0.374E-01    0.703E-02
DAV:   6    -0.949682254336E+02   -0.35701E-03   -0.17631E-03  7024   0.196E-01    0.128E-01
DAV:   7    -0.949679959885E+02    0.22945E-03   -0.83829E-04  7088   0.138E-01    0.395E-02
DAV:   8    -0.949679879328E+02    0.80557E-05   -0.90298E-05  6272   0.469E-02
  84 F= -.97937504E+02 E0= -.97936567E+02  d E =-.509030E-02
       N       E                     dE             d eps       ncg     rms          rms(c)
DAV:   1    -0.949688437846E+02   -0.84780E-03   -0.49906E-01  5440   0.153E+00    0.180E-01
DAV:   2    -0.949701506816E+02   -0.13069E-02   -0.15271E-02  7616   0.319E-01    0.113E-01
DAV:   3    -0.949702745369E+02   -0.12386E-03   -0.19177E-03  7368   0.251E-01    0.115E-01
DAV:   4    -0.949701410614E+02    0.13348E-03   -0.67878E-04  6360   0.138E-01    0.735E-02
DAV:   5    -0.949702360219E+02   -0.94960E-04   -0.33521E-04  6416   0.674E-02    0.818E-02
DAV:   6    -0.949701812313E+02    0.54791E-04   -0.51271E-04  6072   0.116E-01    0.449E-02
DAV:   7    -0.949701410649E+02    0.40166E-04   -0.16195E-04  5592   0.678E-02    0.109E-02
DAV:   8    -0.949701385339E+02    0.25310E-05   -0.11218E-05  4064   0.192E-02
  85 F= -.97939597E+02 E0= -.97938649E+02  d E =-.209292E-02
       N       E                     dE             d eps       ncg     rms          rms(c)
DAV:   1    -0.949701636198E+02   -0.22555E-04   -0.62509E-02  5440   0.541E-01    0.640E-02
DAV:   2    -0.949703391297E+02   -0.17551E-03   -0.20415E-03  7248   0.121E-01    0.398E-02
DAV:   3    -0.949703552572E+02   -0.16128E-04   -0.24979E-04  6168   0.932E-02    0.374E-02
DAV:   4    -0.949703375069E+02    0.17750E-04   -0.11469E-04  4880   0.642E-02    0.257E-02
DAV:   5    -0.949703579917E+02   -0.20485E-04   -0.73332E-05  5520   0.359E-02    0.398E-02
DAV:   6    -0.949703387085E+02    0.19283E-04   -0.55437E-05  4992   0.262E-02    0.102E-02
DAV:   7    -0.949703381130E+02    0.59551E-06   -0.63855E-06  3848   0.122E-02
  86 F= -.97939776E+02 E0= -.97938823E+02  d E =-.227211E-02
       N       E                     dE             d eps       ncg     rms          rms(c)
DAV:   1    -0.949719374735E+02   -0.15988E-02   -0.42429E-01  5440   0.152E+00    0.224E-01
DAV:   2    -0.949730516849E+02   -0.11142E-02   -0.12295E-02  7216   0.316E-01    0.127E-01
DAV:   3    -0.949733505099E+02   -0.29883E-03   -0.20748E-03  7560   0.210E-01    0.165E-01
DAV:   4    -0.949730621319E+02    0.28838E-03   -0.11088E-03  6224   0.146E-01    0.769E-02
DAV:   5    -0.949731771286E+02   -0.11500E-03   -0.84582E-04  6456   0.144E-01    0.746E-02
DAV:   6    -0.949730259104E+02    0.15122E-03   -0.59887E-04  5920   0.138E-01    0.151E-02
DAV:   7    -0.949730251696E+02    0.74077E-06   -0.48265E-05  5256   0.407E-02
  87 F= -.97942479E+02 E0= -.97941484E+02  d E =-.270311E-02
       N       E                     dE             d eps       ncg     rms          rms(c)
DAV:   1    -0.949733042667E+02   -0.27836E-03   -0.64725E-01  5440   0.187E+00    0.275E-01
DAV:   2    -0.949749933968E+02   -0.16891E-02   -0.18679E-02  7248   0.388E-01    0.156E-01
DAV:   3    -0.949754275231E+02   -0.43413E-03   -0.30382E-03  7424   0.253E-01    0.197E-01
DAV:   4    -0.949750263943E+02    0.40113E-03   -0.16567E-03  6448   0.179E-01    0.959E-02
DAV:   5    -0.949751987834E+02   -0.17239E-03   -0.12423E-03  6560   0.169E-01    0.921E-02
DAV:   6    -0.949749697405E+02    0.22904E-03   -0.91005E-04  6032   0.174E-01    0.190E-02
DAV:   7    -0.949749686858E+02    0.10547E-05   -0.76101E-05  5664   0.508E-02
  88 F= -.97944448E+02 E0= -.97943408E+02  d E =-.467212E-02
       N       E                     dE             d eps       ncg     rms          rms(c)
DAV:   1    -0.949675788983E+02    0.73908E-02   -0.25813E+00  5440   0.373E+00    0.556E-01
DAV:   2    -0.949744418355E+02   -0.68629E-02   -0.75545E-02  7248   0.778E-01    0.313E-01
DAV:   3    -0.949760527532E+02   -0.16109E-02   -0.11975E-02  7408   0.529E-01    0.389E-01
DAV:   4    -0.949745285084E+02    0.15242E-02   -0.66360E-03  7136   0.352E-01    0.196E-01
DAV:   5    -0.949752053966E+02   -0.67689E-03   -0.49922E-03  7096   0.347E-01    0.184E-01
DAV:   6    -0.949742944384E+02    0.91096E-03   -0.37208E-03  6928   0.339E-01    0.406E-02
DAV:   7    -0.949742864451E+02    0.79933E-05   -0.33040E-04  6992   0.106E-01    0.222E-02
DAV:   8    -0.949742848582E+02    0.15868E-05   -0.69683E-05  6400   0.399E-02
  89 F= -.97943834E+02 E0= -.97942715E+02  d E =-.405833E-02
       N       E                     dE             d eps       ncg     rms          rms(c)
DAV:   1    -0.949729131592E+02    0.13733E-02   -0.10076E+00  5440   0.233E+00    0.334E-01
DAV:   2    -0.949754786251E+02   -0.25655E-02   -0.28158E-02  7304   0.480E-01    0.194E-01
DAV:   3    -0.949762328011E+02   -0.75418E-03   -0.46698E-03  7792   0.314E-01    0.260E-01
DAV:   4    -0.949755157198E+02    0.71708E-03   -0.25601E-03  6936   0.200E-01    0.114E-01
DAV:   5    -0.949757744034E+02   -0.25868E-03   -0.20535E-03  6800   0.224E-01    0.107E-01
DAV:   6    -0.949754227770E+02    0.35163E-03   -0.13499E-03  6024   0.219E-01    0.198E-02
DAV:   7    -0.949754248167E+02   -0.20398E-05   -0.92063E-05  5712   0.489E-02
  90 F= -.97944927E+02 E0= -.97943864E+02  d E =-.515159E-02
       N       E                     dE             d eps       ncg     rms          rms(c)
DAV:   1    -0.949755349967E+02   -0.11222E-03   -0.53838E-01  5448   0.161E+00    0.180E-01
DAV:   2    -0.949767420190E+02   -0.12070E-02   -0.14149E-02  7104   0.329E-01    0.112E-01
DAV:   3    -0.949769189097E+02   -0.17689E-03   -0.25173E-03  7008   0.238E-01    0.139E-01
DAV:   4    -0.949767035577E+02    0.21535E-03   -0.72458E-04  6032   0.115E-01    0.643E-02
DAV:   5    -0.949767416260E+02   -0.38068E-04   -0.45215E-04  6408   0.105E-01    0.562E-02
DAV:   6    -0.949767004784E+02    0.41148E-04   -0.30236E-04  5856   0.103E-01    0.209E-02
DAV:   7    -0.949766981999E+02    0.22785E-05   -0.54283E-05  5632   0.436E-02
  91 F= -.97946209E+02 E0= -.97945134E+02  d E =-.128164E-02
       N       E                     dE             d eps       ncg     rms          rms(c)
DAV:   1    -0.949766836112E+02    0.16867E-04   -0.44780E-02  5456   0.467E-01    0.521E-02
DAV:   2    -0.949767873599E+02   -0.10375E-03   -0.12448E-03  6768   0.991E-02    0.317E-02
DAV:   3    -0.949768037808E+02   -0.16421E-04   -0.18448E-04  6152   0.587E-02    0.386E-02
DAV:   4    -0.949767869058E+02    0.16875E-04   -0.58112E-05  5184   0.341E-02    0.190E-02
DAV:   5    -0.949767917864E+02   -0.48807E-05   -0.36243E-05  4184   0.307E-02
  92 F= -.97946306E+02 E0= -.97945248E+02  d E =-.137840E-02
       N       E                     dE             d eps       ncg     rms          rms(c)
DAV:   1    -0.949769228888E+02   -0.13598E-03   -0.12963E-01  5616   0.828E-01    0.128E-01
DAV:   2    -0.949772761254E+02   -0.35324E-03   -0.40604E-03  7560   0.185E-01    0.848E-02
DAV:   3    -0.949773406938E+02   -0.64568E-04   -0.71810E-04  7176   0.160E-01    0.773E-02
DAV:   4    -0.949772700267E+02    0.70667E-04   -0.49636E-04  6016   0.132E-01    0.364E-02
DAV:   5    -0.949772868191E+02   -0.16792E-04   -0.18030E-04  6320   0.758E-02    0.368E-02
DAV:   6    -0.949772699536E+02    0.16865E-04   -0.11484E-04  5472   0.492E-02    0.270E-02
DAV:   7    -0.949772610383E+02    0.89152E-05   -0.29313E-05  4736   0.216E-02
  93 F= -.97946761E+02 E0= -.97945693E+02  d E =-.455187E-03
       N       E                     dE             d eps       ncg     rms          rms(c)
DAV:   1    -0.949772633666E+02    0.65870E-05   -0.11773E-03  5464   0.821E-02    0.121E-02
DAV:   2    -0.949772682359E+02   -0.48693E-05   -0.50514E-05  5616   0.240E-02
  94 F= -.97946767E+02 E0= -.97945693E+02  d E =-.461053E-03
       N       E                     dE             d eps       ncg     rms          rms(c)
DAV:   1    -0.949775943491E+02   -0.33098E-03   -0.41646E-02  5440   0.491E-01    0.528E-02
DAV:   2    -0.949777028598E+02   -0.10851E-03   -0.10877E-03  7192   0.113E-01    0.378E-02
DAV:   3    -0.949777310705E+02   -0.28211E-04   -0.26931E-04  6272   0.935E-02    0.501E-02
DAV:   4    -0.949776959132E+02    0.35157E-04   -0.99293E-05  5128   0.461E-02    0.212E-02
DAV:   5    -0.949777043492E+02   -0.84359E-05   -0.42332E-05  4880   0.365E-02
  95 F= -.97947168E+02 E0= -.97946086E+02  d E =-.400642E-03
       N       E                     dE             d eps       ncg     rms          rms(c)
DAV:   1    -0.949777706345E+02   -0.74721E-04   -0.37339E-01  5440   0.147E+00    0.148E-01
DAV:   2    -0.949786524084E+02   -0.88177E-03   -0.93149E-03  7152   0.295E-01    0.933E-02
DAV:   3    -0.949788283091E+02   -0.17590E-03   -0.10929E-03  7784   0.166E-01    0.115E-01
DAV:   4    -0.949786822532E+02    0.14606E-03   -0.71169E-04  6328   0.123E-01    0.625E-02
DAV:   5    -0.949786788486E+02    0.34045E-05   -0.11002E-04  5776   0.492E-02    0.231E-02
DAV:   6    -0.949786755602E+02    0.32884E-05   -0.15039E-04  5368   0.791E-02    0.187E-02
DAV:   7    -0.949786649487E+02    0.10611E-04   -0.37017E-05  4096   0.373E-02    0.463E-03
DAV:   8    -0.949786653545E+02   -0.40579E-06   -0.57074E-06  3216   0.120E-02
  96 F= -.97948023E+02 E0= -.97946932E+02  d E =-.125587E-02
       N       E                     dE             d eps       ncg     rms          rms(c)
DAV:   1    -0.949756498730E+02    0.30151E-02   -0.14933E+00  5440   0.294E+00    0.297E-01
DAV:   2    -0.949791810663E+02   -0.35312E-02   -0.37307E-02  7200   0.585E-01    0.189E-01
DAV:   3    -0.949798457229E+02   -0.66466E-03   -0.40432E-03  7992   0.287E-01    0.233E-01
DAV:   4    -0.949793275902E+02    0.51813E-03   -0.27730E-03  7272   0.220E-01    0.131E-01
DAV:   5    -0.949792379169E+02    0.89673E-04   -0.40533E-04  6304   0.816E-02    0.318E-02
DAV:   6    -0.949792384647E+02   -0.54776E-06   -0.13032E-04  6776   0.712E-02    0.191E-02
DAV:   7    -0.949792300840E+02    0.83807E-05   -0.25103E-05  4584   0.308E-02
  97 F= -.97948379E+02 E0= -.97947259E+02  d E =-.161242E-02
       N       E                     dE             d eps       ncg     rms          rms(c)
DAV:   1    -0.949788101590E+02    0.42831E-03   -0.18515E-01  5440   0.104E+00    0.102E-01
DAV:   2    -0.949792407991E+02   -0.43064E-03   -0.45491E-03  7128   0.211E-01    0.661E-02
DAV:   3    -0.949793271008E+02   -0.86302E-04   -0.53760E-04  7184   0.114E-01    0.832E-02
DAV:   4    -0.949792512900E+02    0.75811E-04   -0.35015E-04  6288   0.863E-02    0.424E-02
DAV:   5    -0.949792460390E+02    0.52510E-05   -0.51677E-05  5632   0.322E-02
  98 F= -.97948468E+02 E0= -.97947364E+02  d E =-.170115E-02
       N       E                     dE             d eps       ncg     rms          rms(c)
DAV:   1    -0.949793843399E+02   -0.13305E-03   -0.37113E-02  5616   0.428E-01    0.961E-02
DAV:   2    -0.949795276353E+02   -0.14330E-03   -0.14693E-03  7152   0.151E-01    0.675E-02
DAV:   3    -0.949795187884E+02    0.88469E-05   -0.86411E-04  6648   0.169E-01    0.670E-02
DAV:   4    -0.949794571748E+02    0.61614E-04   -0.23277E-04  5992   0.877E-02    0.242E-02
DAV:   5    -0.949794688022E+02   -0.11627E-04   -0.97642E-05  6024   0.402E-02    0.337E-02
DAV:   6    -0.949794524910E+02    0.16311E-04   -0.71866E-05  5208   0.441E-02    0.104E-02
DAV:   7    -0.949794509098E+02    0.15811E-05   -0.76411E-06  3592   0.182E-02
  99 F= -.97948750E+02 E0= -.97947624E+02  d E =-.281627E-03
       N       E                     dE             d eps       ncg     rms          rms(c)
DAV:   1    -0.949794358889E+02    0.16602E-04   -0.66402E-03  5456   0.180E-01    0.386E-02
DAV:   2    -0.949794550428E+02   -0.19154E-04   -0.22621E-04  6200   0.449E-02    0.239E-02
DAV:   3    -0.949794653368E+02   -0.10294E-04   -0.91888E-05  6048   0.542E-02    0.294E-02
DAV:   4    -0.949794523131E+02    0.13024E-04   -0.42788E-05  5056   0.361E-02    0.115E-02
DAV:   5    -0.949794554403E+02   -0.31273E-05   -0.19182E-05  4176   0.195E-02
 100 F= -.97948787E+02 E0= -.97947667E+02  d E =-.318622E-03
