       N       E                     dE             d eps       ncg     rms          rms(c)
DAV:   1     0.283137121681E+04    0.28314E+04   -0.88305E+04  7000   0.224E+03
DAV:   2     0.562763860001E+03   -0.22686E+04   -0.21723E+04  5632   0.742E+02
DAV:   3    -0.824235918001E+01   -0.57101E+03   -0.54486E+03  6440   0.262E+02
DAV:   4    -0.913122260631E+02   -0.83070E+02   -0.81196E+02  7976   0.102E+02
DAV:   5    -0.975298944995E+02   -0.62177E+01   -0.61406E+01  8048   0.275E+01    0.295E+01
DAV:   6    -0.948899319390E+02    0.26400E+01   -0.51003E+01  9328   0.284E+01    0.330E+01
DAV:   7    -0.953765874206E+02   -0.48666E+00   -0.17219E+02  7064   0.334E+01    0.205E+01
DAV:   8    -0.948925517026E+02    0.48404E+00   -0.41220E+01  8424   0.209E+01    0.192E+01
DAV:   9    -0.916277077825E+02    0.32648E+01   -0.21029E+01  6896   0.104E+01    0.122E+01
DAV:  10    -0.887683287989E+02    0.28594E+01   -0.58318E+00  7472   0.952E+00    0.664E+00
DAV:  11    -0.881787865541E+02    0.58954E+00   -0.23234E+00  8272   0.516E+00    0.321E+00
DAV:  12    -0.880605080861E+02    0.11828E+00   -0.72813E-01  7816   0.299E+00    0.177E+00
DAV:  13    -0.880482335325E+02    0.12275E-01   -0.96092E-02  7496   0.189E+00    0.132E+00
DAV:  14    -0.880448304671E+02    0.34031E-02   -0.12775E-01  7976   0.129E+00    0.690E-01
DAV:  15    -0.880399392569E+02    0.48912E-02   -0.18832E-02  7304   0.636E-01    0.467E-01
DAV:  16    -0.880377196894E+02    0.22196E-02   -0.19700E-02  7672   0.418E-01    0.108E-01
DAV:  17    -0.880377626560E+02   -0.42967E-04   -0.33683E-03  7864   0.246E-01    0.131E-01
DAV:  18    -0.880374255803E+02    0.33708E-03   -0.89473E-04  6904   0.133E-01    0.535E-02
DAV:  19    -0.880374604890E+02   -0.34909E-04   -0.38937E-04  6648   0.645E-02    0.273E-02
DAV:  20    -0.880377510166E+02   -0.29053E-03   -0.23751E-04  5968   0.519E-02    0.364E-02
DAV:  21    -0.880380024810E+02   -0.25146E-03   -0.19166E-04  5744   0.456E-02    0.290E-02
DAV:  22    -0.880382466053E+02   -0.24412E-03   -0.24802E-04  5424   0.452E-02    0.518E-02
DAV:  23    -0.880383872092E+02   -0.14060E-03   -0.13022E-04  5104   0.300E-02    0.955E-03
DAV:  24    -0.880386362294E+02   -0.24902E-03   -0.19855E-05  4792   0.132E-02    0.622E-03
DAV:  25    -0.880388609042E+02   -0.22467E-03   -0.14659E-05  4464   0.141E-02    0.693E-03
DAV:  26    -0.880389347425E+02   -0.73838E-04   -0.60959E-06  4416   0.116E-02    0.444E-03
DAV:  27    -0.880389649713E+02   -0.30229E-04   -0.26638E-06  4072   0.701E-03    0.226E-03
DAV:  28    -0.880389788882E+02   -0.13917E-04   -0.21441E-06  4000   0.597E-03    0.213E-03
DAV:  29    -0.880389815650E+02   -0.26768E-05   -0.84200E-07  3760   0.512E-03
   1 F= -.91007517E+02 E0= -.91008290E+02  d E =-.910075E+02
       N       E                     dE             d eps       ncg     rms          rms(c)
DAV:   1    -0.880494866441E+02   -0.10508E-01   -0.71537E+00  5632   0.803E+00    0.120E+00
DAV:   2    -0.880945029068E+02   -0.45016E-01   -0.48399E-01  7136   0.222E+00    0.769E-01
DAV:   3    -0.881058711279E+02   -0.11368E-01   -0.97584E-02  7728   0.153E+00    0.842E-01
DAV:   4    -0.880979423610E+02    0.79288E-02   -0.10362E-01  7824   0.129E+00    0.581E-01
DAV:   5    -0.880976836580E+02    0.25870E-03   -0.25544E-02  7384   0.525E-01    0.388E-01
DAV:   6    -0.880943964907E+02    0.32872E-02   -0.10584E-02  7168   0.576E-01    0.616E-02
DAV:   7    -0.880944505958E+02   -0.54105E-04   -0.84483E-04  7680   0.133E-01    0.353E-02
DAV:   8    -0.880944580344E+02   -0.74386E-05   -0.10938E-04  7072   0.501E-02    0.243E-02
DAV:   9    -0.880944593309E+02   -0.12965E-05   -0.21459E-05  4784   0.293E-02
   2 F= -.91059300E+02 E0= -.91059903E+02  d E =-.517834E-01
       N       E                     dE             d eps       ncg     rms          rms(c)
DAV:   1    -0.880186328396E+02    0.75825E-01   -0.16985E+01  5648   0.124E+01    0.211E+00
DAV:   2    -0.881286742352E+02   -0.11004E+00   -0.11807E+00  7080   0.349E+00    0.131E+00
DAV:   3    -0.881648056878E+02   -0.36131E-01   -0.28175E-01  7640   0.241E+00    0.146E+00
DAV:   4    -0.881384922653E+02    0.26313E-01   -0.31327E-01  7960   0.222E+00    0.971E-01
DAV:   5    -0.881366309640E+02    0.18613E-02   -0.73675E-02  7744   0.783E-01    0.620E-01
DAV:   6    -0.881282300321E+02    0.84009E-02   -0.26045E-02  6928   0.841E-01    0.102E-01
DAV:   7    -0.881283312554E+02   -0.10122E-03   -0.23419E-03  7608   0.210E-01    0.644E-02
DAV:   8    -0.881283482738E+02   -0.17018E-04   -0.32463E-04  6872   0.973E-02    0.432E-02
DAV:   9    -0.881283542461E+02   -0.59723E-05   -0.88312E-05  7272   0.591E-02
   3 F= -.91087688E+02 E0= -.91087995E+02  d E =-.801713E-01
       N       E                     dE             d eps       ncg     rms          rms(c)
DAV:   1    -0.880712765013E+02    0.57072E-01   -0.12895E+01  5840   0.109E+01    0.170E+00
DAV:   2    -0.881234500954E+02   -0.52174E-01   -0.59253E-01  6808   0.248E+00    0.897E-01
DAV:   3    -0.881269410830E+02   -0.34910E-02   -0.62378E-02  8144   0.119E+00    0.411E-01
DAV:   4    -0.881389592483E+02   -0.12018E-01   -0.11436E-01  8056   0.169E+00    0.830E-01
DAV:   5    -0.881265421098E+02    0.12417E-01   -0.65746E-02  8192   0.763E-01    0.376E-01
DAV:   6    -0.881247971216E+02    0.17450E-02   -0.86586E-03  7992   0.402E-01    0.122E-01
DAV:   7    -0.881246852215E+02    0.11190E-03   -0.12753E-03  6712   0.183E-01    0.572E-02
DAV:   8    -0.881247235084E+02   -0.38287E-04   -0.84360E-04  7168   0.135E-01    0.471E-02
DAV:   9    -0.881247141272E+02    0.93812E-05   -0.15792E-04  6912   0.799E-02    0.360E-02
DAV:  10    -0.881247104147E+02    0.37125E-05   -0.13784E-04  6712   0.380E-02    0.121E-02
DAV:  11    -0.881247136290E+02   -0.32144E-05   -0.41086E-05  4712   0.253E-02
   4 F= -.91082366E+02 E0= -.91082694E+02  d E =0.532181E-02
       N       E                     dE             d eps       ncg     rms          rms(c)
DAV:   1    -0.881211146598E+02    0.35958E-02   -0.41325E+00  5832   0.611E+00    0.949E-01
DAV:   2    -0.881376477533E+02   -0.16533E-01   -0.18542E-01  6816   0.137E+00    0.507E-01
DAV:   3    -0.881384500049E+02   -0.80225E-03   -0.17376E-02  8384   0.456E-01    0.235E-01
DAV:   4    -0.881408255221E+02   -0.23755E-02   -0.16972E-02  7288   0.340E-01    0.480E-01
DAV:   5    -0.881383007708E+02    0.25248E-02   -0.13857E-02  7672   0.339E-01    0.128E-01
DAV:   6    -0.881380606823E+02    0.24009E-03   -0.34602E-03  6592   0.298E-01    0.584E-02
DAV:   7    -0.881379840859E+02    0.76596E-04   -0.60257E-04  6184   0.123E-01    0.230E-02
DAV:   8    -0.881379845490E+02   -0.46317E-06   -0.97155E-05  6648   0.561E-02
   5 F= -.91096573E+02 E0= -.91096897E+02  d E =-.888487E-02
       N       E                     dE             d eps       ncg     rms          rms(c)
DAV:   1    -0.881401800120E+02   -0.21959E-02   -0.54668E+00  6208   0.686E+00    0.417E-01
DAV:   2    -0.881584510206E+02   -0.18271E-01   -0.19333E-01  7008   0.152E+00    0.209E-01
DAV:   3    -0.881596831304E+02   -0.12321E-02   -0.15483E-02  8200   0.779E-01    0.206E-01
DAV:   4    -0.881591039808E+02    0.57915E-03   -0.56997E-03  7864   0.415E-01    0.128E-01
DAV:   5    -0.881597407310E+02   -0.63675E-03   -0.49014E-03  7536   0.225E-01    0.234E-01
DAV:   6    -0.881590626732E+02    0.67806E-03   -0.30088E-03  7424   0.161E-01    0.470E-02
DAV:   7    -0.881590366201E+02    0.26053E-04   -0.22386E-04  7248   0.634E-02    0.226E-02
DAV:   8    -0.881590342771E+02    0.23429E-05   -0.69423E-05  5960   0.332E-02
   6 F= -.91116956E+02 E0= -.91117352E+02  d E =-.203831E-01
       N       E                     dE             d eps       ncg     rms          rms(c)
DAV:   1    -0.880002137802E+02    0.15882E+00   -0.43664E+01  6208   0.198E+01    0.119E+00
DAV:   2    -0.881711377783E+02   -0.17092E+00   -0.17942E+00  6792   0.456E+00    0.626E-01
DAV:   3    -0.881821456941E+02   -0.11008E-01   -0.12714E-01  8200   0.190E+00    0.741E-01
DAV:   4    -0.881774441123E+02    0.47016E-02   -0.29629E-02  7048   0.776E-01    0.391E-01
DAV:   5    -0.881829615349E+02   -0.55174E-02   -0.44208E-02  8792   0.904E-01    0.542E-01
DAV:   6    -0.881771727636E+02    0.57888E-02   -0.31408E-02  7712   0.863E-01    0.117E-01
DAV:   7    -0.881769689743E+02    0.20379E-03   -0.21486E-03  7288   0.216E-01    0.621E-02
DAV:   8    -0.881769324381E+02    0.36536E-04   -0.47137E-04  7888   0.100E-01    0.306E-02
DAV:   9    -0.881769496347E+02   -0.17197E-04   -0.13732E-04  5816   0.468E-02    0.194E-02
DAV:  10    -0.881769493237E+02    0.31093E-06   -0.23495E-05  4784   0.300E-02
   7 F= -.91133516E+02 E0= -.91133921E+02  d E =-.369433E-01
       N       E                     dE             d eps       ncg     rms          rms(c)
DAV:   1    -0.881712175506E+02    0.57321E-02   -0.20063E+00  6200   0.415E+00    0.267E-01
DAV:   2    -0.881779213716E+02   -0.67038E-02   -0.70628E-02  7016   0.928E-01    0.131E-01
DAV:   3    -0.881786587453E+02   -0.73737E-03   -0.78810E-03  7712   0.515E-01    0.165E-01
DAV:   4    -0.881782087132E+02    0.45003E-03   -0.39459E-03  7784   0.309E-01    0.112E-01
DAV:   5    -0.881782153082E+02   -0.65950E-05   -0.11593E-03  7808   0.117E-01    0.841E-02
DAV:   6    -0.881781325953E+02    0.82713E-04   -0.42186E-04  6880   0.102E-01    0.254E-02
DAV:   7    -0.881781271002E+02    0.54951E-05   -0.66015E-05  6256   0.407E-02
   8 F= -.91134921E+02 E0= -.91135350E+02  d E =-.383483E-01
       N       E                     dE             d eps       ncg     rms          rms(c)
DAV:   1    -0.881670664390E+02    0.11066E-01   -0.57549E+00  5792   0.732E+00    0.467E-01
DAV:   2    -0.881920836999E+02   -0.25017E-01   -0.26405E-01  6720   0.166E+00    0.229E-01
DAV:   3    -0.881938917535E+02   -0.18081E-02   -0.18579E-02  8616   0.587E-01    0.310E-01
DAV:   4    -0.881929536129E+02    0.93814E-03   -0.81845E-03  7592   0.363E-01    0.164E-01
DAV:   5    -0.881927351762E+02    0.21844E-03   -0.13046E-03  6944   0.139E-01    0.559E-02
DAV:   6    -0.881928165633E+02   -0.81387E-04   -0.77453E-04  6944   0.165E-01    0.460E-02
DAV:   7    -0.881927493310E+02    0.67232E-04   -0.36198E-04  6800   0.109E-01    0.166E-02
DAV:   8    -0.881927523170E+02   -0.29860E-05   -0.38981E-05  5912   0.274E-02
   9 F= -.91148911E+02 E0= -.91149446E+02  d E =-.139899E-01
       N       E                     dE             d eps       ncg     rms          rms(c)
DAV:   1    -0.881655129718E+02    0.27236E-01   -0.75903E+00  5784   0.849E+00    0.550E-01
DAV:   2    -0.881989076654E+02   -0.33395E-01   -0.35280E-01  6784   0.192E+00    0.265E-01
DAV:   3    -0.882010979156E+02   -0.21903E-02   -0.23789E-02  8584   0.692E-01    0.331E-01
DAV:   4    -0.882002010931E+02    0.89682E-03   -0.10777E-02  7384   0.437E-01    0.206E-01
DAV:   5    -0.881998230387E+02    0.37805E-03   -0.18627E-03  7168   0.153E-01    0.678E-02
DAV:   6    -0.881998646697E+02   -0.41631E-04   -0.51649E-04  7280   0.973E-02    0.323E-02
DAV:   7    -0.881998581816E+02    0.64881E-05   -0.14896E-04  6744   0.500E-02    0.218E-02
DAV:   8    -0.881998606746E+02   -0.24930E-05   -0.30741E-05  5048   0.224E-02
  10 F= -.91155368E+02 E0= -.91155969E+02  d E =-.204469E-01
       N       E                     dE             d eps       ncg     rms          rms(c)
DAV:   1    -0.882017910502E+02   -0.19329E-02   -0.11102E+00  5856   0.328E+00    0.263E-01
DAV:   2    -0.882067212226E+02   -0.49302E-02   -0.52053E-02  6840   0.747E-01    0.122E-01
DAV:   3    -0.882069364962E+02   -0.21527E-03   -0.29574E-03  8832   0.251E-01    0.906E-02
DAV:   4    -0.882071712466E+02   -0.23475E-03   -0.26638E-03  6968   0.220E-01    0.140E-01
DAV:   5    -0.882068776286E+02    0.29362E-03   -0.11612E-03  6656   0.108E-01    0.337E-02
DAV:   6    -0.882068935795E+02   -0.15951E-04   -0.22483E-04  6080   0.881E-02    0.323E-02
DAV:   7    -0.882068748386E+02    0.18741E-04   -0.98153E-05  5488   0.632E-02    0.927E-03
DAV:   8    -0.882068774739E+02   -0.26352E-05   -0.10803E-05  4040   0.193E-02
  11 F= -.91162032E+02 E0= -.91162658E+02  d E =-.666394E-02
       N       E                     dE             d eps       ncg     rms          rms(c)
DAV:   1    -0.881794994748E+02    0.27375E-01   -0.75095E+00  5872   0.856E+00    0.680E-01
DAV:   2    -0.882148240717E+02   -0.35325E-01   -0.37047E-01  6864   0.198E+00    0.336E-01
DAV:   3    -0.882179284052E+02   -0.31043E-02   -0.28448E-02  8992   0.611E-01    0.443E-01
DAV:   4    -0.882164239649E+02    0.15044E-02   -0.19205E-02  7232   0.471E-01    0.256E-01
DAV:   5    -0.882158697586E+02    0.55421E-03   -0.63558E-03  6912   0.382E-01    0.103E-01
DAV:   6    -0.882157228231E+02    0.14694E-03   -0.26441E-03  7072   0.336E-01    0.615E-02
DAV:   7    -0.882156402742E+02    0.82549E-04   -0.52893E-04  7360   0.135E-01    0.209E-02
DAV:   8    -0.882156472487E+02   -0.69745E-05   -0.10822E-04  6864   0.462E-02    0.156E-02
DAV:   9    -0.882156485379E+02   -0.12892E-05   -0.14936E-05  4280   0.200E-02
  12 F= -.91169933E+02 E0= -.91170584E+02  d E =-.145651E-01
       N       E                     dE             d eps       ncg     rms          rms(c)
DAV:   1    -0.882155382278E+02    0.10902E-03   -0.53164E-02  5880   0.712E-01    0.563E-02
DAV:   2    -0.882157766135E+02   -0.23839E-03   -0.24936E-03  7064   0.170E-01    0.276E-02
DAV:   3    -0.882157876942E+02   -0.11081E-04   -0.14250E-04  7552   0.520E-02    0.187E-02
DAV:   4    -0.882158004881E+02   -0.12794E-04   -0.10512E-04  5112   0.426E-02    0.323E-02
DAV:   5    -0.882157876879E+02    0.12800E-04   -0.71945E-05  4800   0.293E-02    0.927E-03
DAV:   6    -0.882157880698E+02   -0.38194E-06   -0.57347E-06  3680   0.125E-02
  13 F= -.91170003E+02 E0= -.91170654E+02  d E =-.146346E-01
       N       E                     dE             d eps       ncg     rms          rms(c)
DAV:   1    -0.882175344976E+02   -0.17468E-02   -0.26292E-01  5936   0.158E+00    0.812E-02
DAV:   2    -0.882188857895E+02   -0.13513E-02   -0.14102E-02  6840   0.373E-01    0.493E-02
DAV:   3    -0.882189873581E+02   -0.10157E-03   -0.98295E-04  8120   0.120E-01    0.645E-02
DAV:   4    -0.882189471321E+02    0.40226E-04   -0.34191E-04  5848   0.652E-02    0.337E-02
DAV:   5    -0.882189414297E+02    0.57024E-05   -0.59511E-05  5240   0.338E-02
  14 F= -.91173087E+02 E0= -.91173729E+02  d E =-.308464E-02
       N       E                     dE             d eps       ncg     rms          rms(c)
DAV:   1    -0.882141139378E+02    0.48332E-02   -0.23642E+00  5960   0.475E+00    0.246E-01
DAV:   2    -0.882267556204E+02   -0.12642E-01   -0.13196E-01  6816   0.112E+00    0.148E-01
DAV:   3    -0.882274419493E+02   -0.68633E-03   -0.73791E-03  9272   0.329E-01    0.150E-01
DAV:   4    -0.882274391364E+02    0.28129E-05   -0.24081E-03  6984   0.134E-01    0.133E-01
DAV:   5    -0.882273372535E+02    0.10188E-03   -0.14234E-03  6704   0.182E-01    0.685E-02
DAV:   6    -0.882272762337E+02    0.61020E-04   -0.52966E-04  6376   0.144E-01    0.356E-02
DAV:   7    -0.882272759297E+02    0.30401E-06   -0.10358E-04  5760   0.463E-02    0.150E-02
DAV:   8    -0.882272771346E+02   -0.12049E-05   -0.33569E-05  5240   0.245E-02
  15 F= -.91181240E+02 E0= -.91181860E+02  d E =-.112371E-01
       N       E                     dE             d eps       ncg     rms          rms(c)
DAV:   1    -0.881831605905E+02    0.44115E-01   -0.94979E+00  5984   0.965E+00    0.501E-01
DAV:   2    -0.882358975418E+02   -0.52737E-01   -0.55087E-01  6776   0.230E+00    0.278E-01
DAV:   3    -0.882382549580E+02   -0.23574E-02   -0.27616E-02  8504   0.664E-01    0.208E-01
DAV:   4    -0.882394265384E+02   -0.11716E-02   -0.94002E-03  7904   0.342E-01    0.316E-01
DAV:   5    -0.882381620488E+02    0.12645E-02   -0.57585E-03  6768   0.305E-01    0.107E-01
DAV:   6    -0.882381741308E+02   -0.12082E-04   -0.52951E-04  6936   0.147E-01    0.405E-02
DAV:   7    -0.882381789305E+02   -0.47996E-05   -0.26384E-04  7224   0.109E-01    0.226E-02
DAV:   8    -0.882381781143E+02    0.81620E-06   -0.11624E-04  5992   0.688E-02    0.181E-02
DAV:   9    -0.882381743506E+02    0.37637E-05   -0.26603E-05  4312   0.332E-02
  16 F= -.91191876E+02 E0= -.91192434E+02  d E =-.218730E-01
       N       E                     dE             d eps       ncg     rms          rms(c)
DAV:   1    -0.879976343091E+02    0.24054E+00   -0.38811E+01  5992   0.196E+01    0.104E+00
DAV:   2    -0.882231995836E+02   -0.22557E+00   -0.23540E+00  6664   0.480E+00    0.587E-01
DAV:   3    -0.882369973486E+02   -0.13798E-01   -0.15317E-01  8824   0.159E+00    0.586E-01
DAV:   4    -0.882377074881E+02   -0.71014E-03   -0.47604E-02  7648   0.837E-01    0.559E-01
DAV:   5    -0.882348970659E+02    0.28104E-02   -0.16858E-02  7776   0.513E-01    0.233E-01
DAV:   6    -0.882351805792E+02   -0.28351E-03   -0.63473E-03  6952   0.495E-01    0.174E-01
DAV:   7    -0.882347124567E+02    0.46812E-03   -0.27332E-03  7328   0.358E-01    0.583E-02
DAV:   8    -0.882347435082E+02   -0.31052E-04   -0.50813E-04  7560   0.152E-01    0.414E-02
DAV:   9    -0.882347302117E+02    0.13297E-04   -0.15099E-04  7032   0.753E-02    0.252E-02
DAV:  10    -0.882347316816E+02   -0.14698E-05   -0.31877E-05  5224   0.420E-02
  17 F= -.91188353E+02 E0= -.91188757E+02  d E =-.183505E-01
       N       E                     dE             d eps       ncg     rms          rms(c)
DAV:   1    -0.881542761152E+02    0.80454E-01   -0.14857E+01  6000   0.121E+01    0.647E-01
DAV:   2    -0.882391235349E+02   -0.84847E-01   -0.87465E-01  6848   0.304E+00    0.518E-01
DAV:   3    -0.882478806220E+02   -0.87571E-02   -0.10236E-01  8056   0.129E+00    0.729E-01
DAV:   4    -0.882408670258E+02    0.70136E-02   -0.33885E-02  7696   0.742E-01    0.212E-01
DAV:   5    -0.882410705206E+02   -0.20349E-03   -0.40195E-03  7888   0.290E-01    0.146E-01
DAV:   6    -0.882409068582E+02    0.16366E-03   -0.23128E-03  7024   0.355E-01    0.809E-02
DAV:   7    -0.882408900811E+02    0.16777E-04   -0.57557E-04  7360   0.142E-01    0.408E-02
DAV:   8    -0.882409000993E+02   -0.10018E-04   -0.22026E-04  7104   0.606E-02    0.242E-02
DAV:   9    -0.882408970364E+02    0.30629E-05   -0.22416E-05  4576   0.269E-02
  18 F= -.91194497E+02 E0= -.91195005E+02  d E =-.244945E-01
       N       E                     dE             d eps       ncg     rms          rms(c)
DAV:   1    -0.882215029479E+02    0.19397E-01   -0.38037E+00  5944   0.632E+00    0.359E-01
DAV:   2    -0.882441323304E+02   -0.22629E-01   -0.23652E-01  6496   0.154E+00    0.210E-01
DAV:   3    -0.882463955589E+02   -0.22632E-02   -0.24631E-02  8176   0.776E-01    0.341E-01
DAV:   4    -0.882447607918E+02    0.16348E-02   -0.91593E-03  7200   0.380E-01    0.137E-01
DAV:   5    -0.882448117750E+02   -0.50983E-04   -0.11311E-03  7328   0.177E-01    0.985E-02
DAV:   6    -0.882447029657E+02    0.10881E-03   -0.10953E-03  6800   0.215E-01    0.495E-02
DAV:   7    -0.882446816478E+02    0.21318E-04   -0.26859E-04  7368   0.941E-02    0.148E-02
DAV:   8    -0.882446887606E+02   -0.71129E-05   -0.87109E-05  6280   0.419E-02
  19 F= -.91199457E+02 E0= -.91199927E+02  d E =-.496033E-02
       N       E                     dE             d eps       ncg     rms          rms(c)
DAV:   1    -0.882445567165E+02    0.12493E-03   -0.14374E-02  6096   0.391E-01    0.252E-02
DAV:   2    -0.882446419325E+02   -0.85216E-04   -0.88730E-04  6800   0.987E-02    0.127E-02
DAV:   3    -0.882446463551E+02   -0.44227E-05   -0.58221E-05  6104   0.383E-02
  20 F= -.91199489E+02 E0= -.91199954E+02  d E =-.499171E-02
       N       E                     dE             d eps       ncg     rms          rms(c)
DAV:   1    -0.882429631323E+02    0.16788E-02   -0.75185E-01  5984   0.281E+00    0.148E-01
DAV:   2    -0.882472804114E+02   -0.43173E-02   -0.44781E-02  6720   0.672E-01    0.118E-01
DAV:   3    -0.882477142594E+02   -0.43385E-03   -0.54310E-03  8192   0.312E-01    0.171E-01
DAV:   4    -0.882473209088E+02    0.39335E-03   -0.17901E-03  7336   0.154E-01    0.467E-02
DAV:   5    -0.882473280497E+02   -0.71409E-05   -0.11852E-04  6808   0.480E-02    0.238E-02
DAV:   6    -0.882473365515E+02   -0.85018E-05   -0.11838E-04  6704   0.767E-02    0.228E-02
DAV:   7    -0.882473270360E+02    0.95156E-05   -0.45020E-05  4440   0.427E-02
  21 F= -.91202942E+02 E0= -.91203382E+02  d E =-.345330E-02
       N       E                     dE             d eps       ncg     rms          rms(c)
DAV:   1    -0.882102525563E+02    0.37084E-01   -0.67728E+00  5984   0.849E+00    0.441E-01
DAV:   2    -0.882509366283E+02   -0.40684E-01   -0.42564E-01  6568   0.203E+00    0.262E-01
DAV:   3    -0.882545811011E+02   -0.36445E-02   -0.36248E-02  8304   0.886E-01    0.423E-01
DAV:   4    -0.882522212542E+02    0.23598E-02   -0.13973E-02  7232   0.467E-01    0.152E-01
DAV:   5    -0.882523173980E+02   -0.96144E-04   -0.13843E-03  7352   0.214E-01    0.992E-02
DAV:   6    -0.882522189426E+02    0.98455E-04   -0.15872E-03  7096   0.284E-01    0.635E-02
DAV:   7    -0.882521802330E+02    0.38710E-04   -0.35672E-04  7592   0.117E-01    0.189E-02
DAV:   8    -0.882521847329E+02   -0.44999E-05   -0.67224E-05  6840   0.464E-02
  22 F= -.91210220E+02 E0= -.91210552E+02  d E =-.107314E-01
       N       E                     dE             d eps       ncg     rms          rms(c)
DAV:   1    -0.880628765819E+02    0.18930E+00   -0.27475E+01  5968   0.174E+01    0.895E-01
DAV:   2    -0.882382735661E+02   -0.17540E+00   -0.18396E+00  6392   0.435E+00    0.469E-01
DAV:   3    -0.882488069720E+02   -0.10533E-01   -0.13094E-01  8032   0.194E+00    0.457E-01
DAV:   4    -0.882485601918E+02    0.24678E-03   -0.41346E-02  8040   0.880E-01    0.391E-01
DAV:   5    -0.882481147001E+02    0.44549E-03   -0.12169E-02  7288   0.344E-01    0.289E-01
DAV:   6    -0.882472862525E+02    0.82845E-03   -0.55445E-03  7424   0.448E-01    0.148E-01
DAV:   7    -0.882471702772E+02    0.11598E-03   -0.12228E-03  7184   0.191E-01    0.398E-02
DAV:   8    -0.882471792268E+02   -0.89497E-05   -0.26427E-04  7312   0.849E-02    0.301E-02
DAV:   9    -0.882471746767E+02    0.45501E-05   -0.74733E-05  6240   0.498E-02
  23 F= -.91210513E+02 E0= -.91210534E+02  d E =-.110238E-01
       N       E                     dE             d eps       ncg     rms          rms(c)
DAV:   1    -0.882100400757E+02    0.37139E-01   -0.67833E+00  5992   0.856E+00    0.462E-01
DAV:   2    -0.882528055124E+02   -0.42765E-01   -0.43808E-01  6496   0.215E+00    0.442E-01
DAV:   3    -0.882557904125E+02   -0.29849E-02   -0.60869E-02  7760   0.104E+00    0.508E-01
DAV:   4    -0.882521700564E+02    0.36204E-02   -0.15446E-02  7848   0.530E-01    0.126E-01
DAV:   5    -0.882522158884E+02   -0.45832E-04   -0.13395E-03  7360   0.145E-01    0.582E-02
DAV:   6    -0.882522394498E+02   -0.23561E-04   -0.34248E-04  7616   0.123E-01    0.225E-02
DAV:   7    -0.882522424690E+02   -0.30192E-05   -0.15466E-04  6848   0.863E-02    0.251E-02
DAV:   8    -0.882522358175E+02    0.66515E-05   -0.34846E-05  4728   0.401E-02
  24 F= -.91212843E+02 E0= -.91213036E+02  d E =-.133541E-01
       N       E                     dE             d eps       ncg     rms          rms(c)
DAV:   1    -0.882496577985E+02    0.25847E-02   -0.85143E-01  6000   0.309E+00    0.132E-01
DAV:   2    -0.882543395363E+02   -0.46817E-02   -0.48609E-02  6744   0.718E-01    0.733E-02
DAV:   3    -0.882546991364E+02   -0.35960E-03   -0.35211E-03  8184   0.230E-01    0.131E-01
DAV:   4    -0.882545049412E+02    0.19420E-03   -0.10155E-03  6296   0.115E-01    0.370E-02
DAV:   5    -0.882545105438E+02   -0.56026E-05   -0.23955E-04  6488   0.102E-01    0.290E-02
DAV:   6    -0.882544977222E+02    0.12822E-04   -0.11559E-04  5328   0.726E-02    0.150E-02
DAV:   7    -0.882544971747E+02    0.54753E-06   -0.27723E-05  4864   0.301E-02
  25 F= -.91215706E+02 E0= -.91215854E+02  d E =-.286336E-02
       N       E                     dE             d eps       ncg     rms          rms(c)
DAV:   1    -0.882115277664E+02    0.42970E-01   -0.76901E+00  6008   0.924E+00    0.398E-01
DAV:   2    -0.882564923621E+02   -0.44965E-01   -0.46729E-01  6728   0.215E+00    0.168E-01
DAV:   3    -0.882580744887E+02   -0.15821E-02   -0.20543E-02  8304   0.610E-01    0.131E-01
DAV:   4    -0.882581967997E+02   -0.12231E-03   -0.24053E-03  7752   0.231E-01    0.133E-01
DAV:   5    -0.882582283533E+02   -0.31554E-04   -0.21181E-03  7728   0.133E-01    0.117E-01
DAV:   6    -0.882580735149E+02    0.15484E-03   -0.14605E-03  7104   0.219E-01    0.415E-02
DAV:   7    -0.882580470290E+02    0.26486E-04   -0.37581E-04  6632   0.121E-01    0.246E-02
DAV:   8    -0.882580428028E+02    0.42262E-05   -0.99986E-05  7000   0.454E-02
  26 F= -.91221172E+02 E0= -.91221170E+02  d E =-.832909E-02
       N       E                     dE             d eps       ncg     rms          rms(c)
DAV:   1    -0.880404237321E+02    0.21762E+00   -0.31209E+01  6008   0.186E+01    0.825E-01
DAV:   2    -0.882357542217E+02   -0.19533E+00   -0.20358E+00  6312   0.465E+00    0.428E-01
DAV:   3    -0.882535038351E+02   -0.17750E-01   -0.20369E-01  8328   0.211E+00    0.636E-01
DAV:   4    -0.882496391716E+02    0.38647E-02   -0.50833E-02  7816   0.909E-01    0.293E-01
DAV:   5    -0.882489819937E+02    0.65718E-03   -0.50602E-03  7856   0.378E-01    0.149E-01
DAV:   6    -0.882490694057E+02   -0.87412E-04   -0.16372E-03  7632   0.199E-01    0.954E-02
DAV:   7    -0.882489872350E+02    0.82171E-04   -0.10084E-03  7272   0.193E-01    0.606E-02
DAV:   8    -0.882489642887E+02    0.22946E-04   -0.42324E-04  6776   0.143E-01    0.221E-02
DAV:   9    -0.882489507169E+02    0.13572E-04   -0.13297E-04  6800   0.762E-02    0.109E-02
DAV:  10    -0.882489537011E+02   -0.29842E-05   -0.25745E-05  5032   0.326E-02
  27 F= -.91216419E+02 E0= -.91216031E+02  d E =-.357649E-02
       N       E                     dE             d eps       ncg     rms          rms(c)
DAV:   1    -0.881486257999E+02    0.10032E+00   -0.16971E+01  6032   0.136E+01    0.612E-01
DAV:   2    -0.882571518604E+02   -0.10853E+00   -0.11126E+00  6640   0.346E+00    0.583E-01
DAV:   3    -0.882648761063E+02   -0.77242E-02   -0.12538E-01  8192   0.142E+00    0.709E-01
DAV:   4    -0.882579489411E+02    0.69272E-02   -0.30774E-02  7856   0.751E-01    0.176E-01
DAV:   5    -0.882581205096E+02   -0.17157E-03   -0.52612E-03  7280   0.433E-01    0.137E-01
DAV:   6    -0.882578030720E+02    0.31744E-03   -0.24112E-03  7160   0.385E-01    0.607E-02
DAV:   7    -0.882578433447E+02   -0.40273E-04   -0.73312E-04  7992   0.140E-01    0.391E-02
DAV:   8    -0.882578334081E+02    0.99367E-05   -0.14462E-04  7224   0.596E-02    0.204E-02
DAV:   9    -0.882578350542E+02   -0.16461E-05   -0.32796E-05  4920   0.337E-02
  28 F= -.91222024E+02 E0= -.91221929E+02  d E =-.918062E-02
       N       E                     dE             d eps       ncg     rms          rms(c)
DAV:   1    -0.882515611535E+02    0.62723E-02   -0.16609E+00  6032   0.418E+00    0.158E-01
DAV:   2    -0.882603585008E+02   -0.87973E-02   -0.91147E-02  6920   0.942E-01    0.122E-01
DAV:   3    -0.882609571597E+02   -0.59866E-03   -0.67989E-03  8128   0.284E-01    0.182E-01
DAV:   4    -0.882605744618E+02    0.38270E-03   -0.19414E-03  7408   0.171E-01    0.566E-02
DAV:   5    -0.882605742491E+02    0.21272E-06   -0.41689E-04  6856   0.118E-01    0.439E-02
DAV:   6    -0.882605551425E+02    0.19107E-04   -0.19993E-04  6184   0.934E-02    0.266E-02
DAV:   7    -0.882605511720E+02    0.39704E-05   -0.81023E-05  6480   0.405E-02
  29 F= -.91225225E+02 E0= -.91224959E+02  d E =-.320124E-02
       N       E                     dE             d eps       ncg     rms          rms(c)
DAV:   1    -0.882486255255E+02    0.11930E-01   -0.23133E+00  6048   0.494E+00    0.188E-01
DAV:   2    -0.882609585495E+02   -0.12333E-01   -0.12828E-01  6800   0.111E+00    0.132E-01
DAV:   3    -0.882618070834E+02   -0.84853E-03   -0.89398E-03  8208   0.325E-01    0.206E-01
DAV:   4    -0.882613304823E+02    0.47660E-03   -0.25731E-03  7128   0.189E-01    0.687E-02
DAV:   5    -0.882613295954E+02    0.88692E-06   -0.60751E-04  7296   0.134E-01    0.512E-02
DAV:   6    -0.882613043598E+02    0.25236E-04   -0.30177E-04  6568   0.118E-01    0.315E-02
DAV:   7    -0.882612986829E+02    0.56769E-05   -0.11134E-04  6864   0.492E-02    0.160E-02
DAV:   8    -0.882612976716E+02    0.10113E-05   -0.24237E-05  5016   0.224E-02
  30 F= -.91226580E+02 E0= -.91226112E+02  d E =-.455684E-02
       N       E                     dE             d eps       ncg     rms          rms(c)
DAV:   1    -0.882615511616E+02   -0.25248E-03   -0.17206E-01  6064   0.133E+00    0.468E-02
DAV:   2    -0.882623775274E+02   -0.82637E-03   -0.85263E-03  6752   0.299E-01    0.329E-02
DAV:   3    -0.882624401621E+02   -0.62635E-04   -0.65705E-04  8448   0.107E-01    0.552E-02
DAV:   4    -0.882623994795E+02    0.40683E-04   -0.17482E-04  5592   0.533E-02    0.147E-02
DAV:   5    -0.882624008908E+02   -0.14113E-05   -0.20931E-05  4272   0.267E-02
  31 F= -.91227797E+02 E0= -.91227267E+02  d E =-.121611E-02
       N       E                     dE             d eps       ncg     rms          rms(c)
DAV:   1    -0.882573599940E+02    0.50395E-02   -0.15474E+00  6056   0.398E+00    0.141E-01
DAV:   2    -0.882650621851E+02   -0.77022E-02   -0.79272E-02  6736   0.879E-01    0.101E-01
DAV:   3    -0.882655851050E+02   -0.52292E-03   -0.55639E-03  8400   0.275E-01    0.167E-01
DAV:   4    -0.882652379665E+02    0.34714E-03   -0.14741E-03  7168   0.156E-01    0.463E-02
DAV:   5    -0.882652520800E+02   -0.14114E-04   -0.26218E-04  6504   0.899E-02    0.353E-02
DAV:   6    -0.882652334154E+02    0.18665E-04   -0.14993E-04  5864   0.884E-02    0.189E-02
DAV:   7    -0.882652346653E+02   -0.12500E-05   -0.44653E-05  5792   0.315E-02
  32 F= -.91230984E+02 E0= -.91230282E+02  d E =-.440375E-02
       N       E                     dE             d eps       ncg     rms          rms(c)
DAV:   1    -0.882356342321E+02    0.29599E-01   -0.61972E+00  6056   0.800E+00    0.285E-01
DAV:   2    -0.882677986027E+02   -0.32164E-01   -0.33250E-01  6720   0.178E+00    0.159E-01
DAV:   3    -0.882697062564E+02   -0.19077E-02   -0.19059E-02  8320   0.547E-01    0.283E-01
DAV:   4    -0.882687517954E+02    0.95446E-03   -0.47437E-03  7848   0.281E-01    0.860E-02
DAV:   5    -0.882687695882E+02   -0.17793E-04   -0.66118E-04  7248   0.136E-01    0.565E-02
DAV:   6    -0.882687503972E+02    0.19191E-04   -0.54965E-04  6848   0.162E-01    0.406E-02
DAV:   7    -0.882687340494E+02    0.16348E-04   -0.19049E-04  6768   0.853E-02    0.160E-02
DAV:   8    -0.882687350479E+02   -0.99853E-06   -0.49744E-05  6208   0.310E-02
  33 F= -.91235259E+02 E0= -.91234208E+02  d E =-.867839E-02
       N       E                     dE             d eps       ncg     rms          rms(c)
DAV:   1    -0.881213549605E+02    0.14738E+00   -0.25037E+01  6048   0.162E+01    0.587E-01
DAV:   2    -0.882619591470E+02   -0.14060E+00   -0.14631E+00  6712   0.377E+00    0.274E-01
DAV:   3    -0.882665654496E+02   -0.46063E-02   -0.63382E-02  8184   0.113E+00    0.222E-01
DAV:   4    -0.882674191009E+02   -0.85365E-03   -0.10295E-02  8328   0.370E-01    0.251E-01
DAV:   5    -0.882667915966E+02    0.62750E-03   -0.55116E-03  7384   0.285E-01    0.133E-01
DAV:   6    -0.882666394131E+02    0.15218E-03   -0.12451E-03  6784   0.242E-01    0.519E-02
DAV:   7    -0.882666313484E+02    0.80647E-05   -0.48788E-04  7704   0.149E-01    0.204E-02
DAV:   8    -0.882666326331E+02   -0.12847E-05   -0.17521E-04  6416   0.706E-02    0.168E-02
DAV:   9    -0.882666294156E+02    0.32174E-05   -0.32037E-05  4904   0.406E-02
  34 F= -.91234957E+02 E0= -.91233221E+02  d E =-.837628E-02
       N       E                     dE             d eps       ncg     rms          rms(c)
DAV:   1    -0.882298785525E+02    0.36754E-01   -0.73140E+00  6056   0.865E+00    0.322E-01
DAV:   2    -0.882696606493E+02   -0.39782E-01   -0.40355E-01  6816   0.204E+00    0.371E-01
DAV:   3    -0.882710236401E+02   -0.13630E-02   -0.39209E-02  8192   0.817E-01    0.356E-01
DAV:   4    -0.882693279644E+02    0.16957E-02   -0.76832E-03  7800   0.374E-01    0.105E-01
DAV:   5    -0.882693876824E+02   -0.59718E-04   -0.13234E-03  7184   0.213E-01    0.782E-02
DAV:   6    -0.882692812626E+02    0.10642E-03   -0.68780E-04  6960   0.180E-01    0.342E-02
DAV:   7    -0.882692958795E+02   -0.14617E-04   -0.20502E-04  7480   0.689E-02    0.171E-02
DAV:   8    -0.882692946530E+02    0.12266E-05   -0.31436E-05  5304   0.271E-02
  35 F= -.91236601E+02 E0= -.91235231E+02  d E =-.100209E-01
       N       E                     dE             d eps       ncg     rms          rms(c)
DAV:   1    -0.882703868909E+02   -0.10910E-02   -0.16081E-01  6216   0.110E+00    0.493E-02
DAV:   2    -0.882708444195E+02   -0.45753E-03   -0.47638E-03  6976   0.244E-01    0.228E-02
DAV:   3    -0.882708676207E+02   -0.23201E-04   -0.30435E-04  7960   0.102E-01    0.232E-02
DAV:   4    -0.882708619017E+02    0.57190E-05   -0.10120E-04  5248   0.541E-02    0.192E-02
DAV:   5    -0.882708615102E+02    0.39148E-06   -0.39073E-05  4720   0.200E-02
  36 F= -.91238204E+02 E0= -.91236785E+02  d E =-.160312E-02
       N       E                     dE             d eps       ncg     rms          rms(c)
DAV:   1    -0.882702617873E+02    0.60011E-03   -0.14484E+00  6224   0.330E+00    0.150E-01
DAV:   2    -0.882744979293E+02   -0.42361E-02   -0.43995E-02  6992   0.717E-01    0.766E-02
DAV:   3    -0.882747120638E+02   -0.21413E-03   -0.26030E-03  8480   0.270E-01    0.911E-02
DAV:   4    -0.882746412787E+02    0.70785E-04   -0.60665E-04  6880   0.939E-02    0.559E-02
DAV:   5    -0.882746527236E+02   -0.11445E-04   -0.51606E-04  6344   0.104E-01    0.445E-02
DAV:   6    -0.882746146087E+02    0.38115E-04   -0.26609E-04  5872   0.761E-02    0.120E-02
DAV:   7    -0.882746140487E+02    0.55998E-06   -0.33801E-05  4984   0.284E-02
  37 F= -.91242074E+02 E0= -.91240491E+02  d E =-.547314E-02
       N       E                     dE             d eps       ncg     rms          rms(c)
DAV:   1    -0.882593458883E+02    0.15269E-01   -0.57979E+00  6216   0.662E+00    0.301E-01
DAV:   2    -0.882775527904E+02   -0.18207E-01   -0.18846E-01  7008   0.145E+00    0.149E-01
DAV:   3    -0.882784204357E+02   -0.86765E-03   -0.97489E-03  8432   0.484E-01    0.190E-01
DAV:   4    -0.882781486774E+02    0.27176E-03   -0.26989E-03  7496   0.157E-01    0.113E-01
DAV:   5    -0.882781450395E+02    0.36380E-05   -0.19647E-03  6656   0.228E-01    0.752E-02
DAV:   6    -0.882780240113E+02    0.12103E-03   -0.90853E-04  6376   0.144E-01    0.243E-02
DAV:   7    -0.882780202203E+02    0.37910E-05   -0.13417E-04  6304   0.493E-02    0.167E-02
DAV:   8    -0.882780177796E+02    0.24407E-05   -0.28779E-05  5048   0.271E-02
  38 F= -.91245753E+02 E0= -.91243859E+02  d E =-.915142E-02
       N       E                     dE             d eps       ncg     rms          rms(c)
DAV:   1    -0.882791012373E+02   -0.10810E-02   -0.11842E-01  6384   0.933E-01    0.432E-02
DAV:   2    -0.882794142152E+02   -0.31298E-03   -0.33069E-03  7056   0.199E-01    0.254E-02
DAV:   3    -0.882794293763E+02   -0.15161E-04   -0.19625E-04  7944   0.542E-02    0.248E-02
DAV:   4    -0.882794319063E+02   -0.25300E-05   -0.12132E-04  5648   0.401E-02    0.264E-02
DAV:   5    -0.882794230541E+02    0.88522E-05   -0.37400E-05  4320   0.322E-02
  39 F= -.91247169E+02 E0= -.91245224E+02  d E =-.141638E-02
       N       E                     dE             d eps       ncg     rms          rms(c)
DAV:   1    -0.882794963301E+02   -0.64424E-04   -0.10650E+00  6328   0.280E+00    0.130E-01
DAV:   2    -0.882823645052E+02   -0.28682E-02   -0.30059E-02  6976   0.587E-01    0.791E-02
DAV:   3    -0.882825537944E+02   -0.18929E-03   -0.20102E-03  8856   0.162E-01    0.105E-01
DAV:   4    -0.882824574574E+02    0.96337E-04   -0.11226E-03  6888   0.115E-01    0.567E-02
DAV:   5    -0.882824316723E+02    0.25785E-04   -0.29856E-04  5872   0.103E-01    0.253E-02
DAV:   6    -0.882824249081E+02    0.67643E-05   -0.14025E-04  5464   0.708E-02    0.192E-02
DAV:   7    -0.882824211515E+02    0.37566E-05   -0.31892E-05  4656   0.327E-02
  40 F= -.91250206E+02 E0= -.91248116E+02  d E =-.445311E-02
       N       E                     dE             d eps       ncg     rms          rms(c)
DAV:   1    -0.882705578813E+02    0.11867E-01   -0.42608E+00  6312   0.561E+00    0.258E-01
DAV:   2    -0.882827608227E+02   -0.12203E-01   -0.12727E-01  6968   0.119E+00    0.156E-01
DAV:   3    -0.882836101285E+02   -0.84931E-03   -0.86167E-03  8744   0.341E-01    0.219E-01
DAV:   4    -0.882831029871E+02    0.50714E-03   -0.46349E-03  7672   0.249E-01    0.104E-01
DAV:   5    -0.882830096150E+02    0.93372E-04   -0.84599E-04  6736   0.168E-01    0.465E-02
DAV:   6    -0.882830114756E+02   -0.18606E-05   -0.45678E-04  6272   0.131E-01    0.384E-02
DAV:   7    -0.882829887829E+02    0.22693E-04   -0.13505E-04  6248   0.704E-02    0.144E-02
DAV:   8    -0.882829899159E+02   -0.11330E-05   -0.27718E-05  4896   0.244E-02
  41 F= -.91250877E+02 E0= -.91248498E+02  d E =-.512394E-02
       N       E                     dE             d eps       ncg     rms          rms(c)
DAV:   1    -0.882816783589E+02    0.13104E-02   -0.70511E-01  6336   0.228E+00    0.102E-01
DAV:   2    -0.882835938196E+02   -0.19155E-02   -0.20058E-02  7000   0.476E-01    0.622E-02
DAV:   3    -0.882837076331E+02   -0.11381E-03   -0.13005E-03  8440   0.137E-01    0.791E-02
DAV:   4    -0.882836559451E+02    0.51688E-04   -0.74262E-04  6776   0.101E-01    0.471E-02
DAV:   5    -0.882836307610E+02    0.25184E-04   -0.13773E-04  5352   0.640E-02    0.170E-02
DAV:   6    -0.882836346589E+02   -0.38979E-05   -0.64047E-05  5088   0.505E-02
  42 F= -.91251476E+02 E0= -.91249221E+02  d E =-.572312E-02
       N       E                     dE             d eps       ncg     rms          rms(c)
DAV:   1    -0.882845093543E+02   -0.87859E-03   -0.20618E-01  6296   0.122E+00    0.511E-02
DAV:   2    -0.882850429284E+02   -0.53357E-03   -0.54459E-03  7056   0.257E-01    0.471E-02
DAV:   3    -0.882850799293E+02   -0.37001E-04   -0.69132E-04  8184   0.114E-01    0.562E-02
DAV:   4    -0.882850343159E+02    0.45613E-04   -0.20944E-04  5528   0.585E-02    0.138E-02
DAV:   5    -0.882850340492E+02    0.26677E-06   -0.12266E-05  3848   0.219E-02
  43 F= -.91252697E+02 E0= -.91250368E+02  d E =-.122160E-02
       N       E                     dE             d eps       ncg     rms          rms(c)
DAV:   1    -0.882838623747E+02    0.11719E-02   -0.18574E+00  6280   0.366E+00    0.153E-01
DAV:   2    -0.882887749062E+02   -0.49125E-02   -0.50248E-02  6984   0.769E-01    0.133E-01
DAV:   3    -0.882891702136E+02   -0.39531E-03   -0.58339E-03  8232   0.330E-01    0.171E-01
DAV:   4    -0.882887496975E+02    0.42052E-03   -0.19909E-03  7872   0.179E-01    0.418E-02
DAV:   5    -0.882887581465E+02   -0.84490E-05   -0.17050E-04  7000   0.693E-02    0.255E-02
DAV:   6    -0.882887542666E+02    0.38799E-05   -0.91639E-05  6088   0.654E-02
  44 F= -.91255892E+02 E0= -.91253357E+02  d E =-.441633E-02
       N       E                     dE             d eps       ncg     rms          rms(c)
DAV:   1    -0.882733306196E+02    0.15428E-01   -0.74434E+00  6280   0.736E+00    0.309E-01
DAV:   2    -0.882941092903E+02   -0.20779E-01   -0.21281E-01  6976   0.157E+00    0.256E-01
DAV:   3    -0.882959033149E+02   -0.17940E-02   -0.24121E-02  8352   0.701E-01    0.351E-01
DAV:   4    -0.882940849282E+02    0.18184E-02   -0.82596E-03  7928   0.343E-01    0.829E-02
DAV:   5    -0.882940957182E+02   -0.10790E-04   -0.53220E-04  7440   0.995E-02    0.400E-02
DAV:   6    -0.882941148310E+02   -0.19113E-04   -0.19796E-04  6992   0.101E-01    0.252E-02
DAV:   7    -0.882941025384E+02    0.12293E-04   -0.10363E-04  5928   0.679E-02    0.128E-02
DAV:   8    -0.882941028982E+02   -0.35975E-06   -0.15681E-05  3952   0.235E-02
  45 F= -.91260226E+02 E0= -.91257318E+02  d E =-.875011E-02
       N       E                     dE             d eps       ncg     rms          rms(c)
DAV:   1    -0.882069881872E+02    0.87114E-01   -0.30142E+01  6448   0.151E+01    0.631E-01
DAV:   2    -0.882953711528E+02   -0.88383E-01   -0.91004E-01  6728   0.329E+00    0.514E-01
DAV:   3    -0.883039685119E+02   -0.85974E-02   -0.11087E-01  7896   0.154E+00    0.722E-01
DAV:   4    -0.882962048281E+02    0.77637E-02   -0.35958E-02  8176   0.780E-01    0.166E-01
DAV:   5    -0.882962940607E+02   -0.89233E-04   -0.28225E-03  7280   0.253E-01    0.976E-02
DAV:   6    -0.882962958260E+02   -0.17653E-05   -0.13667E-03  7096   0.268E-01    0.619E-02
DAV:   7    -0.882962469627E+02    0.48863E-04   -0.41225E-04  7520   0.130E-01    0.268E-02
DAV:   8    -0.882962560132E+02   -0.90506E-05   -0.88137E-05  6872   0.448E-02
  46 F= -.91260504E+02 E0= -.91256908E+02  d E =-.902850E-02
       N       E                     dE             d eps       ncg     rms          rms(c)
DAV:   1    -0.882758665577E+02    0.20380E-01   -0.76036E+00  6304   0.746E+00    0.309E-01
DAV:   2    -0.882963933638E+02   -0.20527E-01   -0.21253E-01  6864   0.156E+00    0.218E-01
DAV:   3    -0.882984565510E+02   -0.20632E-02   -0.20866E-02  7944   0.598E-01    0.359E-01
DAV:   4    -0.882966501690E+02    0.18064E-02   -0.91982E-03  8048   0.407E-01    0.866E-02
DAV:   5    -0.882966421934E+02    0.79756E-05   -0.52699E-04  7696   0.124E-01    0.408E-02
DAV:   6    -0.882966605888E+02   -0.18395E-04   -0.19384E-04  6632   0.999E-02    0.210E-02
DAV:   7    -0.882966498076E+02    0.10781E-04   -0.10665E-04  6216   0.732E-02    0.126E-02
DAV:   8    -0.882966496810E+02    0.12665E-06   -0.16602E-05  4224   0.264E-02
  47 F= -.91261818E+02 E0= -.91258554E+02  d E =-.103426E-01
       N       E                     dE             d eps       ncg     rms          rms(c)
DAV:   1    -0.882969672269E+02   -0.31742E-03   -0.76036E-01  6072   0.239E+00    0.149E-01
DAV:   2    -0.882993658237E+02   -0.23986E-02   -0.25747E-02  6880   0.522E-01    0.891E-02
DAV:   3    -0.882994766971E+02   -0.11087E-03   -0.18737E-03  8344   0.163E-01    0.810E-02
DAV:   4    -0.882995497108E+02   -0.73014E-04   -0.12713E-03  6688   0.133E-01    0.100E-01
DAV:   5    -0.882994208929E+02    0.12882E-03   -0.60923E-04  6576   0.980E-02    0.307E-02
DAV:   6    -0.882994266768E+02   -0.57838E-05   -0.15491E-04  6072   0.794E-02    0.204E-02
DAV:   7    -0.882994137470E+02    0.12930E-04   -0.66869E-05  5336   0.560E-02    0.101E-02
DAV:   8    -0.882994137320E+02    0.14963E-07   -0.15979E-05  3920   0.166E-02
  48 F= -.91264312E+02 E0= -.91260937E+02  d E =-.249367E-02
       N       E                     dE             d eps       ncg     rms          rms(c)
DAV:   1    -0.882994275909E+02   -0.13844E-04   -0.65932E-02  6104   0.705E-01    0.452E-02
DAV:   2    -0.882996328747E+02   -0.20528E-03   -0.21890E-03  6792   0.155E-01    0.254E-02
DAV:   3    -0.882996416892E+02   -0.88145E-05   -0.15769E-04  7664   0.488E-02    0.197E-02
DAV:   4    -0.882996532858E+02   -0.11597E-04   -0.10845E-04  5568   0.430E-02    0.318E-02
DAV:   5    -0.882996389955E+02    0.14290E-04   -0.57509E-05  4736   0.314E-02    0.779E-03
DAV:   6    -0.882996390581E+02   -0.62690E-07   -0.50748E-06  3288   0.109E-02
  49 F= -.91264459E+02 E0= -.91261051E+02  d E =-.264064E-02
       N       E                     dE             d eps       ncg     rms          rms(c)
DAV:   1    -0.883006326603E+02   -0.99366E-03   -0.28498E-01  6160   0.146E+00    0.737E-02
DAV:   2    -0.883015006458E+02   -0.86799E-03   -0.89500E-03  6920   0.323E-01    0.393E-02
DAV:   3    -0.883015507692E+02   -0.50123E-04   -0.58447E-04  7952   0.116E-01    0.431E-02
DAV:   4    -0.883015465336E+02    0.42357E-05   -0.17878E-04  6000   0.427E-02    0.333E-02
DAV:   5    -0.883015450617E+02    0.14718E-05   -0.15042E-04  4808   0.625E-02    0.212E-02
DAV:   6    -0.883015351821E+02    0.98796E-05   -0.73858E-05  4504   0.528E-02
  50 F= -.91266323E+02 E0= -.91262843E+02  d E =-.186392E-02
       N       E                     dE             d eps       ncg     rms          rms(c)
DAV:   1    -0.882954408903E+02    0.61042E-02   -0.25614E+00  6160   0.437E+00    0.221E-01
DAV:   2    -0.883038925388E+02   -0.84516E-02   -0.87250E-02  7056   0.980E-01    0.117E-01
DAV:   3    -0.883042109732E+02   -0.31843E-03   -0.42607E-03  8128   0.348E-01    0.111E-01
DAV:   4    -0.883042017543E+02    0.92189E-05   -0.12546E-03  7224   0.142E-01    0.970E-02
DAV:   5    -0.883042287221E+02   -0.26968E-04   -0.13453E-03  7120   0.161E-01    0.735E-02
DAV:   6    -0.883041173347E+02    0.11139E-03   -0.80266E-04  6120   0.156E-01    0.263E-02
DAV:   7    -0.883041101784E+02    0.71563E-05   -0.97194E-05  6352   0.508E-02
  51 F= -.91268818E+02 E0= -.91265106E+02  d E =-.435883E-02
       N       E                     dE             d eps       ncg     rms          rms(c)
DAV:   1    -0.883044075089E+02   -0.29017E-03   -0.58752E-02  6152   0.718E-01    0.319E-02
DAV:   2    -0.883046053330E+02   -0.19782E-03   -0.20517E-03  6800   0.168E-01    0.162E-02
DAV:   3    -0.883046130255E+02   -0.76925E-05   -0.10243E-04  7272   0.548E-02    0.112E-02
DAV:   4    -0.883046172542E+02   -0.42287E-05   -0.40362E-05  4224   0.445E-02
  52 F= -.91269452E+02 E0= -.91265738E+02  d E =-.634535E-03
       N       E                     dE             d eps       ncg     rms          rms(c)
DAV:   1    -0.883039787461E+02    0.63428E-03   -0.52856E-01  6128   0.216E+00    0.102E-01
DAV:   2    -0.883057916526E+02   -0.18129E-02   -0.18607E-02  6624   0.485E-01    0.651E-02
DAV:   3    -0.883060049747E+02   -0.21332E-03   -0.19770E-03  8528   0.169E-01    0.116E-01
DAV:   4    -0.883058328661E+02    0.17211E-03   -0.80968E-04  6576   0.117E-01    0.319E-02
DAV:   5    -0.883058393215E+02   -0.64554E-05   -0.10215E-04  5656   0.644E-02    0.221E-02
DAV:   6    -0.883058349966E+02    0.43249E-05   -0.80038E-05  5056   0.629E-02
  53 F= -.91271054E+02 E0= -.91267321E+02  d E =-.223604E-02
       N       E                     dE             d eps       ncg     rms          rms(c)
DAV:   1    -0.882995296348E+02    0.63097E-02   -0.21113E+00  6128   0.432E+00    0.203E-01
DAV:   2    -0.883067943553E+02   -0.72647E-02   -0.75098E-02  6608   0.965E-01    0.940E-02
DAV:   3    -0.883071286898E+02   -0.33433E-03   -0.39562E-03  8616   0.258E-01    0.920E-02
DAV:   4    -0.883071602797E+02   -0.31590E-04   -0.14646E-03  7360   0.169E-01    0.939E-02
DAV:   5    -0.883070673081E+02    0.92972E-04   -0.52016E-04  6600   0.833E-02    0.422E-02
DAV:   6    -0.883070632899E+02    0.40182E-05   -0.11976E-04  6408   0.490E-02    0.245E-02
DAV:   7    -0.883070601040E+02    0.31859E-05   -0.68981E-05  5344   0.580E-02
  54 F= -.91273052E+02 E0= -.91269269E+02  d E =-.423457E-02
       N       E                     dE             d eps       ncg     rms          rms(c)
DAV:   1    -0.882733557410E+02    0.33708E-01   -0.84581E+00  6152   0.863E+00    0.407E-01
DAV:   2    -0.883037573917E+02   -0.30402E-01   -0.31429E-01  6744   0.197E+00    0.187E-01
DAV:   3    -0.883050968246E+02   -0.13394E-02   -0.16174E-02  8416   0.542E-01    0.179E-01
DAV:   4    -0.883052907855E+02   -0.19396E-03   -0.58339E-03  7920   0.333E-01    0.191E-01
DAV:   5    -0.883048727197E+02    0.41807E-03   -0.20451E-03  7528   0.165E-01    0.782E-02
DAV:   6    -0.883048997789E+02   -0.27059E-04   -0.48956E-04  6688   0.110E-01    0.538E-02
DAV:   7    -0.883048587107E+02    0.41068E-04   -0.31383E-04  6928   0.118E-01    0.155E-02
DAV:   8    -0.883048548215E+02    0.38892E-05   -0.55666E-05  5672   0.530E-02
  55 F= -.91272417E+02 E0= -.91268539E+02  d E =-.359954E-02
       N       E                     dE             d eps       ncg     rms          rms(c)
DAV:   1    -0.882962474149E+02    0.86113E-02   -0.29916E+00  6136   0.510E+00    0.239E-01
DAV:   2    -0.883066240615E+02   -0.10377E-01   -0.10682E-01  6576   0.115E+00    0.131E-01
DAV:   3    -0.883075995080E+02   -0.97545E-03   -0.91413E-03  8008   0.453E-01    0.230E-01
DAV:   4    -0.883069150242E+02    0.68448E-03   -0.41085E-03  7872   0.251E-01    0.735E-02
DAV:   5    -0.883069078772E+02    0.71470E-05   -0.29190E-04  7240   0.706E-02    0.415E-02
DAV:   6    -0.883069180109E+02   -0.10134E-04   -0.14495E-04  6528   0.782E-02    0.213E-02
DAV:   7    -0.883069094428E+02    0.85682E-05   -0.94540E-05  5912   0.734E-02
  56 F= -.91273534E+02 E0= -.91269717E+02  d E =-.471587E-02
       N       E                     dE             d eps       ncg     rms          rms(c)
DAV:   1    -0.883071079627E+02   -0.18995E-03   -0.13771E-01  6024   0.106E+00    0.522E-02
DAV:   2    -0.883075229366E+02   -0.41497E-03   -0.44223E-03  6400   0.239E-01    0.344E-02
DAV:   3    -0.883075545483E+02   -0.31612E-04   -0.47944E-04  8096   0.116E-01    0.344E-02
DAV:   4    -0.883075485074E+02    0.60408E-05   -0.24503E-04  6104   0.777E-02    0.314E-02
DAV:   5    -0.883075428865E+02    0.56209E-05   -0.72980E-05  5288   0.247E-02
  57 F= -.91274190E+02 E0= -.91270375E+02  d E =-.656116E-03
       N       E                     dE             d eps       ncg     rms          rms(c)
DAV:   1    -0.883071751353E+02    0.37337E-03   -0.19958E-01  6040   0.127E+00    0.656E-02
DAV:   2    -0.883077592758E+02   -0.58414E-03   -0.63120E-03  6424   0.284E-01    0.451E-02
DAV:   3    -0.883077936431E+02   -0.34367E-04   -0.60320E-04  8360   0.117E-01    0.332E-02
DAV:   4    -0.883077957038E+02   -0.20607E-05   -0.14787E-04  6184   0.802E-02    0.314E-02
DAV:   5    -0.883077960947E+02   -0.39092E-06   -0.81781E-05  5496   0.288E-02
  58 F= -.91274471E+02 E0= -.91270641E+02  d E =-.937257E-03
       N       E                     dE             d eps       ncg     rms          rms(c)
DAV:   1    -0.883082265537E+02   -0.43085E-03   -0.11069E-01  6208   0.912E-01    0.587E-02
DAV:   2    -0.883085540357E+02   -0.32748E-03   -0.32874E-03  6840   0.224E-01    0.424E-02
DAV:   3    -0.883086123541E+02   -0.58318E-04   -0.81949E-04  7920   0.136E-01    0.686E-02
DAV:   4    -0.883085428605E+02    0.69494E-04   -0.29434E-04  5792   0.659E-02    0.162E-02
DAV:   5    -0.883085441528E+02   -0.12923E-05   -0.35539E-05  4696   0.367E-02
  59 F= -.91275109E+02 E0= -.91271287E+02  d E =-.638090E-03
       N       E                     dE             d eps       ncg     rms          rms(c)
DAV:   1    -0.883075268159E+02    0.10160E-02   -0.99435E-01  6144   0.272E+00    0.181E-01
DAV:   2    -0.883104081652E+02   -0.28813E-02   -0.29453E-02  6880   0.599E-01    0.905E-02
DAV:   3    -0.883109429281E+02   -0.53476E-03   -0.36127E-03  7992   0.230E-01    0.187E-01
DAV:   4    -0.883104615872E+02    0.48134E-03   -0.23219E-03  6672   0.176E-01    0.410E-02
DAV:   5    -0.883104811773E+02   -0.19590E-04   -0.29198E-04  6448   0.109E-01    0.270E-02
DAV:   6    -0.883104603957E+02    0.20782E-04   -0.14460E-04  5768   0.785E-02    0.877E-03
DAV:   7    -0.883104607282E+02   -0.33254E-06   -0.18768E-05  3992   0.211E-02
  60 F= -.91276700E+02 E0= -.91272867E+02  d E =-.222943E-02
       N       E                     dE             d eps       ncg     rms          rms(c)
DAV:   1    -0.883003174620E+02    0.10143E-01   -0.39768E+00  6152   0.547E+00    0.366E-01
DAV:   2    -0.883124957146E+02   -0.12178E-01   -0.12450E-01  6864   0.121E+00    0.186E-01
DAV:   3    -0.883149325605E+02   -0.24368E-02   -0.16617E-02  8128   0.528E-01    0.397E-01
DAV:   4    -0.883126708825E+02    0.22617E-02   -0.10274E-02  7232   0.357E-01    0.791E-02
DAV:   5    -0.883127520775E+02   -0.81195E-04   -0.10756E-03  6920   0.189E-01    0.540E-02
DAV:   6    -0.883126781249E+02    0.73953E-04   -0.54776E-04  6280   0.152E-01    0.180E-02
DAV:   7    -0.883126787193E+02   -0.59441E-06   -0.79973E-05  6320   0.452E-02
  61 F= -.91278290E+02 E0= -.91274455E+02  d E =-.381894E-02
       N       E                     dE             d eps       ncg     rms          rms(c)
DAV:   1    -0.883124224862E+02    0.25564E-03   -0.52506E-01  6360   0.189E+00    0.932E-02
DAV:   2    -0.883137234935E+02   -0.13010E-02   -0.13440E-02  7136   0.404E-01    0.565E-02
DAV:   3    -0.883138143087E+02   -0.90815E-04   -0.88125E-04  8032   0.125E-01    0.750E-02
DAV:   4    -0.883137697015E+02    0.44607E-04   -0.44802E-04  6360   0.585E-02    0.394E-02
DAV:   5    -0.883137679969E+02    0.17046E-05   -0.24311E-04  5408   0.940E-02    0.239E-02
DAV:   6    -0.883137542479E+02    0.13749E-04   -0.74655E-05  4696   0.456E-02    0.885E-03
DAV:   7    -0.883137545908E+02   -0.34290E-06   -0.10234E-05  3608   0.167E-02
  62 F= -.91279342E+02 E0= -.91275511E+02  d E =-.105179E-02
       N       E                     dE             d eps       ncg     rms          rms(c)
DAV:   1    -0.883022717832E+02    0.11482E-01   -0.47243E+00  6368   0.567E+00    0.284E-01
DAV:   2    -0.883149230275E+02   -0.12651E-01   -0.13039E-01  7056   0.123E+00    0.183E-01
DAV:   3    -0.883160212510E+02   -0.10982E-02   -0.99088E-03  8152   0.347E-01    0.269E-01
DAV:   4    -0.883152666274E+02    0.75462E-03   -0.51884E-03  7712   0.229E-01    0.106E-01
DAV:   5    -0.883152701126E+02   -0.34852E-05   -0.20183E-03  6920   0.276E-01    0.707E-02
DAV:   6    -0.883151507140E+02    0.11940E-03   -0.58499E-04  6320   0.134E-01    0.243E-02
DAV:   7    -0.883151547427E+02   -0.40287E-05   -0.81264E-05  6248   0.357E-02
  63 F= -.91280690E+02 E0= -.91276884E+02  d E =-.240000E-02
       N       E                     dE             d eps       ncg     rms          rms(c)
DAV:   1    -0.883148828749E+02    0.26784E-03   -0.27253E-01  6064   0.137E+00    0.625E-02
DAV:   2    -0.883155986707E+02   -0.71580E-03   -0.74414E-03  7024   0.285E-01    0.438E-02
DAV:   3    -0.883156411004E+02   -0.42430E-04   -0.53474E-04  8032   0.107E-01    0.526E-02
DAV:   4    -0.883156164788E+02    0.24622E-04   -0.24420E-04  5888   0.622E-02    0.303E-02
DAV:   5    -0.883156122776E+02    0.42012E-05   -0.41873E-05  4848   0.270E-02
  64 F= -.91281201E+02 E0= -.91277388E+02  d E =-.510844E-03
       N       E                     dE             d eps       ncg     rms          rms(c)
DAV:   1    -0.883148390855E+02    0.77739E-03   -0.34951E-01  6072   0.154E+00    0.699E-02
DAV:   2    -0.883157379006E+02   -0.89882E-03   -0.93356E-03  7008   0.323E-01    0.531E-02
DAV:   3    -0.883157849840E+02   -0.47083E-04   -0.64136E-04  8392   0.926E-02    0.599E-02
DAV:   4    -0.883157596172E+02    0.25367E-04   -0.26855E-04  5848   0.483E-02    0.359E-02
DAV:   5    -0.883157623020E+02   -0.26848E-05   -0.14192E-04  5200   0.728E-02    0.249E-02
DAV:   6    -0.883157489111E+02    0.13391E-04   -0.69091E-05  4848   0.468E-02    0.102E-02
DAV:   7    -0.883157504356E+02   -0.15245E-05   -0.14936E-05  4360   0.172E-02
  65 F= -.91281401E+02 E0= -.91277576E+02  d E =-.710801E-03
       N       E                     dE             d eps       ncg     rms          rms(c)
DAV:   1    -0.883157156477E+02    0.33263E-04   -0.18308E-01  5944   0.115E+00    0.627E-02
DAV:   2    -0.883162003148E+02   -0.48467E-03   -0.50409E-03  6960   0.239E-01    0.394E-02
DAV:   3    -0.883162749810E+02   -0.74666E-04   -0.66761E-04  7984   0.114E-01    0.682E-02
DAV:   4    -0.883162095529E+02    0.65428E-04   -0.33020E-04  5776   0.687E-02    0.184E-02
DAV:   5    -0.883162087614E+02    0.79153E-06   -0.23636E-05  4488   0.212E-02
  66 F= -.91281900E+02 E0= -.91278068E+02  d E =-.499579E-03
       N       E                     dE             d eps       ncg     rms          rms(c)
DAV:   1    -0.883126828679E+02    0.35267E-02   -0.16467E+00  5960   0.344E+00    0.186E-01
DAV:   2    -0.883172093785E+02   -0.45265E-02   -0.46884E-02  6984   0.720E-01    0.125E-01
DAV:   3    -0.883178258920E+02   -0.61651E-03   -0.57453E-03  8424   0.310E-01    0.206E-01
DAV:   4    -0.883172502108E+02    0.57568E-03   -0.28965E-03  7120   0.196E-01    0.570E-02
DAV:   5    -0.883172631848E+02   -0.12974E-04   -0.39943E-04  6584   0.103E-01    0.415E-02
DAV:   6    -0.883172325584E+02    0.30626E-04   -0.21719E-04  6496   0.956E-02    0.159E-02
DAV:   7    -0.883172327689E+02   -0.21050E-06   -0.43585E-05  5528   0.413E-02
  67 F= -.91283052E+02 E0= -.91279183E+02  d E =-.165170E-02
       N       E                     dE             d eps       ncg     rms          rms(c)
DAV:   1    -0.882986962908E+02    0.18536E-01   -0.65946E+00  5968   0.691E+00    0.381E-01
DAV:   2    -0.883176949228E+02   -0.18999E-01   -0.19678E-01  6920   0.147E+00    0.240E-01
DAV:   3    -0.883203903038E+02   -0.26954E-02   -0.24755E-02  8496   0.723E-01    0.416E-01
DAV:   4    -0.883178716391E+02    0.25187E-02   -0.11958E-02  7224   0.399E-01    0.109E-01
DAV:   5    -0.883178473089E+02    0.24330E-04   -0.89286E-04  7528   0.126E-01    0.576E-02
DAV:   6    -0.883178502646E+02   -0.29557E-05   -0.47588E-04  6936   0.127E-01    0.346E-02
DAV:   7    -0.883178321188E+02    0.18146E-04   -0.16438E-04  6720   0.839E-02    0.197E-02
DAV:   8    -0.883178301523E+02    0.19665E-05   -0.38778E-05  5344   0.362E-02
  68 F= -.91283926E+02 E0= -.91279990E+02  d E =-.252556E-02
       N       E                     dE             d eps       ncg     rms          rms(c)
DAV:   1    -0.883157494718E+02    0.20826E-02   -0.91865E-01  6088   0.265E+00    0.155E-01
DAV:   2    -0.883184504602E+02   -0.27010E-02   -0.27979E-02  6768   0.569E-01    0.682E-02
DAV:   3    -0.883185828769E+02   -0.13242E-03   -0.14527E-03  8600   0.150E-01    0.662E-02
DAV:   4    -0.883186077385E+02   -0.24862E-04   -0.68585E-04  6696   0.899E-02    0.706E-02
DAV:   5    -0.883185508147E+02    0.56924E-04   -0.31738E-04  5408   0.747E-02    0.219E-02
DAV:   6    -0.883185587212E+02   -0.79065E-05   -0.11456E-04  5480   0.662E-02    0.154E-02
DAV:   7    -0.883185495393E+02    0.91819E-05   -0.43715E-05  4832   0.428E-02
  69 F= -.91284877E+02 E0= -.91280884E+02  d E =-.950855E-03
       N       E                     dE             d eps       ncg     rms          rms(c)
DAV:   1    -0.882931707627E+02    0.25388E-01   -0.82805E+00  6104   0.800E+00    0.477E-01
DAV:   2    -0.883188335079E+02   -0.25663E-01   -0.26612E-01  6720   0.174E+00    0.206E-01
DAV:   3    -0.883197864010E+02   -0.95289E-03   -0.12425E-02  8728   0.460E-01    0.139E-01
DAV:   4    -0.883202423531E+02   -0.45595E-03   -0.28953E-03  7664   0.204E-01    0.201E-01
DAV:   5    -0.883198263765E+02    0.41598E-03   -0.31037E-03  6584   0.178E-01    0.814E-02
DAV:   6    -0.883198517996E+02   -0.25423E-04   -0.11257E-03  6432   0.189E-01    0.423E-02
DAV:   7    -0.883197675114E+02    0.84288E-04   -0.38784E-04  6344   0.120E-01    0.110E-02
DAV:   8    -0.883197694701E+02   -0.19587E-05   -0.32412E-05  5520   0.284E-02
  70 F= -.91286817E+02 E0= -.91282668E+02  d E =-.289075E-02
       N       E                     dE             d eps       ncg     rms          rms(c)
DAV:   1    -0.881991380560E+02    0.12063E+00   -0.33453E+01  6152   0.163E+01    0.100E+00
DAV:   2    -0.883126152837E+02   -0.11348E+00   -0.11795E+00  6576   0.369E+00    0.429E-01
DAV:   3    -0.883170033434E+02   -0.43881E-02   -0.59812E-02  8048   0.120E+00    0.289E-01
DAV:   4    -0.883214497944E+02   -0.44465E-02   -0.32900E-02  8176   0.762E-01    0.555E-01
DAV:   5    -0.883172927572E+02    0.41570E-02   -0.19786E-02  7560   0.496E-01    0.150E-01
DAV:   6    -0.883173392561E+02   -0.46499E-04   -0.95984E-04  7736   0.156E-01    0.690E-02
DAV:   7    -0.883174017479E+02   -0.62492E-04   -0.82350E-04  7144   0.181E-01    0.557E-02
DAV:   8    -0.883173298036E+02    0.71944E-04   -0.45524E-04  6312   0.153E-01    0.243E-02
DAV:   9    -0.883173237253E+02    0.60783E-05   -0.63056E-05  6160   0.376E-02
  71 F= -.91285928E+02 E0= -.91281476E+02  d E =-.200168E-02
       N       E                     dE             d eps       ncg     rms          rms(c)
DAV:   1    -0.882736080951E+02    0.43722E-01   -0.14015E+01  6080   0.105E+01    0.631E-01
DAV:   2    -0.883180724064E+02   -0.44464E-01   -0.46094E-01  6720   0.235E+00    0.290E-01
DAV:   3    -0.883218379540E+02   -0.37655E-02   -0.34659E-02  7856   0.961E-01    0.434E-01
DAV:   4    -0.883199744195E+02    0.18635E-02   -0.20068E-02  8288   0.532E-01    0.200E-01
DAV:   5    -0.883196770008E+02    0.29742E-03   -0.23732E-03  6992   0.219E-01    0.873E-02
DAV:   6    -0.883198217689E+02   -0.14477E-03   -0.15060E-03  6952   0.237E-01    0.639E-02
DAV:   7    -0.883196722942E+02    0.14947E-03   -0.70619E-04  6872   0.188E-01    0.205E-02
DAV:   8    -0.883196751074E+02   -0.28132E-05   -0.83102E-05  6504   0.409E-02
  72 F= -.91287250E+02 E0= -.91282992E+02  d E =-.332347E-02
       N       E                     dE             d eps       ncg     rms          rms(c)
DAV:   1    -0.883185463999E+02    0.11259E-02   -0.49331E-01  6136   0.195E+00    0.830E-02
DAV:   2    -0.883199698027E+02   -0.14234E-02   -0.14933E-02  6760   0.426E-01    0.442E-02
DAV:   3    -0.883200964121E+02   -0.12661E-03   -0.13161E-03  8504   0.161E-01    0.724E-02
DAV:   4    -0.883200317603E+02    0.64652E-04   -0.42003E-04  6488   0.874E-02    0.325E-02
DAV:   5    -0.883200278875E+02    0.38728E-05   -0.35235E-05  5024   0.247E-02
  73 F= -.91287826E+02 E0= -.91283557E+02  d E =-.576141E-03
       N       E                     dE             d eps       ncg     rms          rms(c)
DAV:   1    -0.883192967424E+02    0.73502E-03   -0.24049E-01  6136   0.136E+00    0.593E-02
DAV:   2    -0.883199917094E+02   -0.69497E-03   -0.73350E-03  6600   0.331E-01    0.395E-02
DAV:   3    -0.883200355872E+02   -0.43878E-04   -0.10195E-03  7896   0.175E-01    0.478E-02
DAV:   4    -0.883200119201E+02    0.23667E-04   -0.33757E-04  6968   0.828E-02    0.362E-02
DAV:   5    -0.883200040512E+02    0.78689E-05   -0.63123E-05  5768   0.269E-02
  74 F= -.91287959E+02 E0= -.91283680E+02  d E =-.709507E-03
       N       E                     dE             d eps       ncg     rms          rms(c)
DAV:   1    -0.883199190332E+02    0.92887E-04   -0.57234E-02  6192   0.709E-01    0.332E-02
DAV:   2    -0.883201129385E+02   -0.19391E-03   -0.20075E-03  6744   0.167E-01    0.225E-02
DAV:   3    -0.883201309063E+02   -0.17968E-04   -0.24513E-04  7800   0.830E-02    0.321E-02
DAV:   4    -0.883201165709E+02    0.14335E-04   -0.87196E-05  4936   0.405E-02    0.148E-02
DAV:   5    -0.883201176877E+02   -0.11169E-05   -0.17290E-05  4328   0.211E-02
  75 F= -.91288246E+02 E0= -.91283980E+02  d E =-.287015E-03
       N       E                     dE             d eps       ncg     rms          rms(c)
DAV:   1    -0.883184909972E+02    0.16256E-02   -0.51495E-01  6184   0.213E+00    0.101E-01
DAV:   2    -0.883202865644E+02   -0.17956E-02   -0.18464E-02  6760   0.483E-01    0.717E-02
DAV:   3    -0.883205023835E+02   -0.21582E-03   -0.25030E-03  8424   0.223E-01    0.119E-01
DAV:   4    -0.883202966722E+02    0.20571E-03   -0.87318E-04  7064   0.117E-01    0.315E-02
DAV:   5    -0.883203090359E+02   -0.12364E-04   -0.93451E-05  6424   0.551E-02    0.250E-02
DAV:   6    -0.883203003983E+02    0.86376E-05   -0.69596E-05  5648   0.522E-02
  76 F= -.91288952E+02 E0= -.91284711E+02  d E =-.992224E-03
       N       E                     dE             d eps       ncg     rms          rms(c)
DAV:   1    -0.883125914982E+02    0.77175E-02   -0.20603E+00  6184   0.426E+00    0.203E-01
DAV:   2    -0.883198593400E+02   -0.72678E-02   -0.74919E-02  6608   0.962E-01    0.131E-01
DAV:   3    -0.883207219726E+02   -0.86263E-03   -0.89149E-03  8440   0.419E-01    0.230E-01
DAV:   4    -0.883199558327E+02    0.76614E-03   -0.34734E-03  7408   0.244E-01    0.618E-02
DAV:   5    -0.883199913502E+02   -0.35517E-04   -0.32810E-04  7440   0.927E-02    0.462E-02
DAV:   6    -0.883199685491E+02    0.22801E-04   -0.23532E-04  6720   0.936E-02    0.206E-02
DAV:   7    -0.883199667539E+02    0.17952E-05   -0.51692E-05  5000   0.500E-02
  77 F= -.91289674E+02 E0= -.91285509E+02  d E =-.171443E-02
       N       E                     dE             d eps       ncg     rms          rms(c)
DAV:   1    -0.883190494465E+02    0.91910E-03   -0.32722E-01  6080   0.175E+00    0.929E-02
DAV:   2    -0.883202294026E+02   -0.11800E-02   -0.12321E-02  6824   0.387E-01    0.419E-02
DAV:   3    -0.883202699119E+02   -0.40509E-04   -0.54571E-04  8656   0.964E-02    0.258E-02
DAV:   4    -0.883202915623E+02   -0.21650E-04   -0.17946E-04  6224   0.610E-02    0.391E-02
DAV:   5    -0.883202717530E+02    0.19809E-04   -0.15315E-04  5064   0.511E-02    0.178E-02
DAV:   6    -0.883202700688E+02    0.16842E-05   -0.19854E-05  4392   0.220E-02
  78 F= -.91290322E+02 E0= -.91286193E+02  d E =-.648603E-03
       N       E                     dE             d eps       ncg     rms          rms(c)
DAV:   1    -0.883089616390E+02    0.11310E-01   -0.29443E+00  6088   0.524E+00    0.281E-01
DAV:   2    -0.883197363895E+02   -0.10775E-01   -0.11258E-01  6592   0.114E+00    0.125E-01
DAV:   3    -0.883201508640E+02   -0.41447E-03   -0.56254E-03  8488   0.307E-01    0.830E-02
DAV:   4    -0.883202183028E+02   -0.67439E-04   -0.95640E-04  7560   0.133E-01    0.897E-02
DAV:   5    -0.883202338909E+02   -0.15588E-04   -0.12496E-03  6944   0.101E-01    0.854E-02
DAV:   6    -0.883201332601E+02    0.10063E-03   -0.60266E-04  6072   0.131E-01    0.234E-02
DAV:   7    -0.883201359617E+02   -0.27016E-05   -0.10470E-04  5448   0.555E-02    0.143E-02
DAV:   8    -0.883201308556E+02    0.51061E-05   -0.32346E-05  4344   0.326E-02
  79 F= -.91291233E+02 E0= -.91287209E+02  d E =-.155909E-02
       N       E                     dE             d eps       ncg     rms          rms(c)
DAV:   1    -0.883196622564E+02    0.47371E-03   -0.13227E-01  6024   0.112E+00    0.564E-02
DAV:   2    -0.883201620929E+02   -0.49984E-03   -0.52682E-03  6808   0.246E-01    0.273E-02
DAV:   3    -0.883201829841E+02   -0.20891E-04   -0.31684E-04  7976   0.968E-02    0.233E-02
DAV:   4    -0.883201840502E+02   -0.10661E-05   -0.12799E-04  5712   0.551E-02    0.253E-02
DAV:   5    -0.883201792036E+02    0.48465E-05   -0.50142E-05  4800   0.231E-02
  80 F= -.91291552E+02 E0= -.91287530E+02  d E =-.318949E-03
       N       E                     dE             d eps       ncg     rms          rms(c)
DAV:   1    -0.883193820911E+02    0.80196E-03   -0.16571E-01  6024   0.125E+00    0.634E-02
DAV:   2    -0.883200013826E+02   -0.61929E-03   -0.65317E-03  6880   0.279E-01    0.361E-02
DAV:   3    -0.883200257269E+02   -0.24344E-04   -0.44304E-04  7848   0.121E-01    0.329E-02
DAV:   4    -0.883200169780E+02    0.87489E-05   -0.90938E-05  5784   0.479E-02
  81 F= -.91291694E+02 E0= -.91287683E+02  d E =-.460948E-03
       N       E                     dE             d eps       ncg     rms          rms(c)
DAV:   1    -0.883199869069E+02    0.38820E-04   -0.16282E-02  5776   0.410E-01    0.375E-02
DAV:   2    -0.883202521681E+02   -0.26526E-03   -0.19157E-03  7784   0.181E-01    0.110E-01
DAV:   3    -0.883200462604E+02    0.20591E-03   -0.95388E-04  6592   0.118E-01    0.177E-02
DAV:   4    -0.883200482455E+02   -0.19852E-05   -0.36536E-05  5632   0.243E-02
  82 F= -.91291841E+02 E0= -.91287826E+02  d E =-.146817E-03
       N       E                     dE             d eps       ncg     rms          rms(c)
DAV:   1    -0.883194677360E+02    0.57852E-03   -0.14578E-01  5768   0.122E+00    0.749E-02
DAV:   2    -0.883200856758E+02   -0.61794E-03   -0.65361E-03  6640   0.269E-01    0.491E-02
DAV:   3    -0.883201676997E+02   -0.82024E-04   -0.80308E-04  7640   0.132E-01    0.707E-02
DAV:   4    -0.883201029621E+02    0.64738E-04   -0.41644E-04  6160   0.776E-02    0.288E-02
DAV:   5    -0.883201023464E+02    0.61567E-06   -0.37235E-05  5112   0.276E-02
  83 F= -.91292242E+02 E0= -.91288202E+02  d E =-.548165E-03
