       N       E                     dE             d eps       ncg     rms          rms(c)
DAV:   1     0.269504289205E+04    0.26950E+04   -0.82789E+04  6792   0.191E+03
DAV:   2     0.429290925154E+03   -0.22658E+04   -0.21906E+04  6928   0.615E+02
DAV:   3    -0.315433123736E+02   -0.46083E+03   -0.43266E+03  7648   0.249E+02
DAV:   4    -0.873557766401E+02   -0.55812E+02   -0.53513E+02  9160   0.853E+01
DAV:   5    -0.898189169878E+02   -0.24631E+01   -0.24329E+01  9384   0.188E+01    0.186E+01
DAV:   6    -0.816610817355E+02    0.81578E+01   -0.29406E+01  8576   0.230E+01    0.750E+00
DAV:   7    -0.833273057389E+02   -0.16662E+01   -0.10516E+01  8816   0.270E+01    0.668E+00
DAV:   8    -0.808710091041E+02    0.24563E+01   -0.50555E+00  8712   0.126E+01    0.381E+00
DAV:   9    -0.806347821202E+02    0.23623E+00   -0.16381E+00  8464   0.940E+00    0.185E+00
DAV:  10    -0.805680202514E+02    0.66762E-01   -0.47921E-01  8256   0.471E+00    0.690E-01
DAV:  11    -0.805515764587E+02    0.16444E-01   -0.88749E-02  8752   0.425E+00    0.337E-01
DAV:  12    -0.805493905576E+02    0.21859E-02   -0.34994E-02  8376   0.120E+00    0.224E-01
DAV:  13    -0.805462448305E+02    0.31457E-02   -0.11741E-02  8136   0.145E+00    0.135E-01
DAV:  14    -0.805430601070E+02    0.31847E-02   -0.47193E-03  8096   0.800E-01    0.960E-02
DAV:  15    -0.805422402459E+02    0.81986E-03   -0.25171E-03  8408   0.623E-01    0.559E-02
DAV:  16    -0.805419993672E+02    0.24088E-03   -0.16019E-03  7832   0.243E-01    0.484E-02
DAV:  17    -0.805420165860E+02   -0.17219E-04   -0.35730E-04  7864   0.250E-01    0.243E-02
DAV:  18    -0.805423150958E+02   -0.29851E-03   -0.32643E-04  7904   0.125E-01    0.232E-02
DAV:  19    -0.805425966130E+02   -0.28152E-03   -0.16197E-04  7224   0.108E-01    0.137E-02
DAV:  20    -0.805430826601E+02   -0.48605E-03   -0.84804E-05  6856   0.132E-01    0.867E-03
DAV:  21    -0.805434496202E+02   -0.36696E-03   -0.30269E-05  5720   0.477E-02    0.551E-03
DAV:  22    -0.805438092403E+02   -0.35962E-03   -0.26150E-05  5096   0.450E-02    0.310E-03
DAV:  23    -0.805439688927E+02   -0.15965E-03   -0.18542E-05  5400   0.272E-02    0.193E-03
DAV:  24    -0.805440142831E+02   -0.45390E-04   -0.55634E-06  5048   0.206E-02    0.116E-03
DAV:  25    -0.805440325641E+02   -0.18281E-04   -0.32903E-06  4616   0.108E-02    0.795E-04
DAV:  26    -0.805440416789E+02   -0.91147E-05   -0.19550E-06  4536   0.989E-03
   1 F= -.83633682E+02 E0= -.83639567E+02  d E =0.176536E-01
       N       E                     dE             d eps       ncg     rms          rms(c)
DAV:   1    -0.805412933160E+02    0.27392E-02   -0.13806E-01  6448   0.386E-01    0.172E-01
DAV:   2    -0.805412872699E+02    0.60460E-05   -0.52781E-03  7120   0.262E-01    0.107E-01
DAV:   3    -0.805412974983E+02   -0.10228E-04   -0.71128E-04  7360   0.455E-01    0.753E-02
DAV:   4    -0.805412675641E+02    0.29934E-04   -0.48292E-04  7208   0.453E-01    0.574E-02
DAV:   5    -0.805412120403E+02    0.55524E-04   -0.13759E-04  6768   0.195E-01    0.132E-02
DAV:   6    -0.805412136025E+02   -0.15622E-05   -0.26800E-05  6328   0.574E-02
   2 F= -.83630742E+02 E0= -.83636632E+02  d E =0.176714E-01
       N       E                     dE             d eps       ncg     rms          rms(c)
DAV:   1    -0.805412457192E+02   -0.33679E-04   -0.54353E-01  6472   0.764E-01    0.343E-01
DAV:   2    -0.805412861147E+02   -0.40396E-04   -0.22000E-02  7920   0.542E-01    0.216E-01
DAV:   3    -0.805412783846E+02    0.77302E-05   -0.29643E-03  7896   0.903E-01    0.152E-01
DAV:   4    -0.805411345367E+02    0.14385E-03   -0.18949E-03  7272   0.933E-01    0.116E-01
DAV:   5    -0.805409245221E+02    0.21001E-03   -0.51977E-04  7048   0.354E-01    0.277E-02
DAV:   6    -0.805409301172E+02   -0.55951E-05   -0.11794E-04  7520   0.117E-01    0.163E-02
DAV:   7    -0.805409234963E+02    0.66209E-05   -0.25173E-05  6320   0.503E-02
   3 F= -.83630681E+02 E0= -.83636558E+02  d E =0.176328E-01
       N       E                     dE             d eps       ncg     rms          rms(c)
DAV:   1    -0.805422145371E+02   -0.12844E-02   -0.29677E-01  6528   0.559E-01    0.303E-01
DAV:   2    -0.805417319871E+02    0.48255E-03   -0.16203E-02  8112   0.486E-01    0.190E-01
DAV:   3    -0.805416509270E+02    0.81060E-04   -0.21668E-03  8024   0.857E-01    0.134E-01
DAV:   4    -0.805414770026E+02    0.17392E-03   -0.14816E-03  7168   0.763E-01    0.101E-01
DAV:   5    -0.805413046336E+02    0.17237E-03   -0.40373E-04  6992   0.311E-01    0.248E-02
DAV:   6    -0.805413053595E+02   -0.72591E-06   -0.93283E-05  7480   0.102E-01
   4 F= -.83630850E+02 E0= -.83636724E+02  d E =0.176225E-01
       N       E                     dE             d eps       ncg     rms          rms(c)
DAV:   1    -0.805410012171E+02    0.30342E-03   -0.54425E-01  6584   0.776E-01    0.343E-01
DAV:   2    -0.805410624655E+02   -0.61248E-04   -0.22069E-02  7808   0.559E-01    0.217E-01
DAV:   3    -0.805410582222E+02    0.42433E-05   -0.30036E-03  7920   0.928E-01    0.154E-01
DAV:   4    -0.805408792881E+02    0.17893E-03   -0.19253E-03  7184   0.939E-01    0.116E-01
DAV:   5    -0.805406670893E+02    0.21220E-03   -0.51962E-04  7016   0.346E-01    0.276E-02
DAV:   6    -0.805406721568E+02   -0.50675E-05   -0.12078E-04  7576   0.118E-01    0.164E-02
DAV:   7    -0.805406657648E+02    0.63920E-05   -0.26619E-05  6416   0.514E-02
   5 F= -.83630406E+02 E0= -.83636300E+02  d E =0.176803E-01
       N       E                     dE             d eps       ncg     rms          rms(c)
DAV:   1    -0.805409595683E+02   -0.28741E-03   -0.25713E-01  6144   0.519E-01    0.138E-01
DAV:   2    -0.805413633777E+02   -0.40381E-03   -0.35183E-03  7344   0.121E-01    0.844E-02
DAV:   3    -0.805414279717E+02   -0.64594E-04   -0.10726E-04  6736   0.691E-02    0.274E-02
DAV:   4    -0.805414727066E+02   -0.44735E-04   -0.10699E-04  6504   0.222E-01    0.216E-02
DAV:   5    -0.805414349083E+02    0.37798E-04   -0.56159E-05  5480   0.164E-01    0.632E-03
DAV:   6    -0.805414345141E+02    0.39420E-06   -0.45734E-06  4768   0.184E-02
   6 F= -.83630976E+02 E0= -.83636863E+02  d E =0.176614E-01
       N       E                     dE             d eps       ncg     rms          rms(c)
DAV:   1    -0.805409740843E+02    0.46082E-03   -0.56618E-01  6256   0.743E-01    0.347E-01
DAV:   2    -0.805406823134E+02    0.29177E-03   -0.17924E-02  7416   0.517E-01    0.206E-01
DAV:   3    -0.805407890703E+02   -0.10676E-03   -0.30305E-03  7672   0.101E+00    0.145E-01
DAV:   4    -0.805405585332E+02    0.23054E-03   -0.22126E-03  7408   0.948E-01    0.106E-01
DAV:   5    -0.805403293748E+02    0.22916E-03   -0.55782E-04  7024   0.374E-01    0.245E-02
DAV:   6    -0.805403297464E+02   -0.37166E-06   -0.88916E-05  7360   0.100E-01
   7 F= -.83630068E+02 E0= -.83635949E+02  d E =0.176424E-01
       N       E                     dE             d eps       ncg     rms          rms(c)
DAV:   1    -0.805417503994E+02   -0.14210E-02   -0.28507E-01  6176   0.546E-01    0.272E-01
DAV:   2    -0.805411692762E+02    0.58112E-03   -0.10522E-02  7544   0.494E-01    0.156E-01
DAV:   3    -0.805412672533E+02   -0.97977E-04   -0.22760E-03  7488   0.867E-01    0.114E-01
DAV:   4    -0.805410021254E+02    0.26513E-03   -0.11910E-03  7232   0.737E-01    0.813E-02
DAV:   5    -0.805409464071E+02    0.55718E-04   -0.21933E-04  6968   0.193E-01    0.250E-02
DAV:   6    -0.805409486020E+02   -0.21949E-05   -0.49138E-05  7272   0.873E-02
   8 F= -.83630683E+02 E0= -.83636566E+02  d E =0.176477E-01
       N       E                     dE             d eps       ncg     rms          rms(c)
DAV:   1    -0.805418434379E+02   -0.89703E-03   -0.54718E-01  6248   0.777E-01    0.328E-01
DAV:   2    -0.805419196472E+02   -0.76209E-04   -0.19393E-02  7800   0.500E-01    0.204E-01
DAV:   3    -0.805419731320E+02   -0.53485E-04   -0.25133E-03  8056   0.862E-01    0.143E-01
DAV:   4    -0.805418821852E+02    0.90947E-04   -0.18153E-03  7200   0.860E-01    0.110E-01
DAV:   5    -0.805416606981E+02    0.22149E-03   -0.53491E-04  6992   0.394E-01    0.252E-02
DAV:   6    -0.805416650226E+02   -0.43245E-05   -0.10305E-04  7624   0.107E-01    0.149E-02
DAV:   7    -0.805416598877E+02    0.51349E-05   -0.23485E-05  6288   0.465E-02
   9 F= -.83631211E+02 E0= -.83637101E+02  d E =0.176682E-01
       N       E                     dE             d eps       ncg     rms          rms(c)
DAV:   1    -0.805416379849E+02    0.27038E-04   -0.29316E-01  6432   0.552E-01    0.302E-01
DAV:   2    -0.805412093924E+02    0.42859E-03   -0.16434E-02  8080   0.494E-01    0.193E-01
DAV:   3    -0.805410865514E+02    0.12284E-03   -0.22918E-03  7976   0.839E-01    0.135E-01
DAV:   4    -0.805409098517E+02    0.17670E-03   -0.14351E-03  7160   0.796E-01    0.101E-01
DAV:   5    -0.805407481768E+02    0.16167E-03   -0.37797E-04  6976   0.281E-01    0.255E-02
DAV:   6    -0.805407497375E+02   -0.15607E-05   -0.97395E-05  7376   0.105E-01
  10 F= -.83630496E+02 E0= -.83636379E+02  d E =0.176491E-01
       N       E                     dE             d eps       ncg     rms          rms(c)
DAV:   1    -0.805415888517E+02   -0.84067E-03   -0.55171E-01  6376   0.786E-01    0.341E-01
DAV:   2    -0.805415450245E+02    0.43827E-04   -0.20733E-02  7968   0.547E-01    0.213E-01
DAV:   3    -0.805415962459E+02   -0.51221E-04   -0.28618E-03  8192   0.949E-01    0.151E-01
DAV:   4    -0.805414201034E+02    0.17614E-03   -0.19781E-03  7184   0.888E-01    0.113E-01
DAV:   5    -0.805411950657E+02    0.22504E-03   -0.54399E-04  7000   0.383E-01    0.262E-02
DAV:   6    -0.805411988903E+02   -0.38246E-05   -0.11330E-04  7696   0.113E-01    0.155E-02
DAV:   7    -0.805411934744E+02    0.54159E-05   -0.26365E-05  6496   0.499E-02
  11 F= -.83630733E+02 E0= -.83636621E+02  d E =0.176648E-01
       N       E                     dE             d eps       ncg     rms          rms(c)
DAV:   1    -0.805422633642E+02   -0.10645E-02   -0.29567E-01  6360   0.557E-01    0.314E-01
DAV:   2    -0.805417927398E+02    0.47062E-03   -0.16900E-02  7600   0.522E-01    0.193E-01
DAV:   3    -0.805417456248E+02    0.47115E-04   -0.27107E-03  8016   0.924E-01    0.139E-01
DAV:   4    -0.805414758847E+02    0.26974E-03   -0.15513E-03  7232   0.849E-01    0.102E-01
DAV:   5    -0.805413296645E+02    0.14622E-03   -0.36683E-04  6968   0.263E-01    0.281E-02
DAV:   6    -0.805413270325E+02    0.26320E-05   -0.94753E-05  7360   0.108E-01
  12 F= -.83630874E+02 E0= -.83636756E+02  d E =0.176457E-01
       N       E                     dE             d eps       ncg     rms          rms(c)
DAV:   1    -0.805407837213E+02    0.54594E-03   -0.56825E-01  6312   0.762E-01    0.348E-01
DAV:   2    -0.805405171255E+02    0.26660E-03   -0.19417E-02  8088   0.539E-01    0.213E-01
DAV:   3    -0.805405664710E+02   -0.49346E-04   -0.29887E-03  8120   0.101E+00    0.149E-01
DAV:   4    -0.805403598306E+02    0.20664E-03   -0.22295E-03  7472   0.949E-01    0.109E-01
DAV:   5    -0.805401113709E+02    0.24846E-03   -0.60165E-04  7008   0.388E-01    0.246E-02
DAV:   6    -0.805401102846E+02    0.10863E-05   -0.99046E-05  7424   0.102E-01
  13 F= -.83629846E+02 E0= -.83635733E+02  d E =0.176606E-01
       N       E                     dE             d eps       ncg     rms          rms(c)
DAV:   1    -0.805370214723E+02    0.30899E-02   -0.16474E+00  7248   0.165E+00    0.254E-01
DAV:   2    -0.805388701127E+02   -0.18486E-02   -0.29733E-02  8016   0.492E-01    0.165E-01
DAV:   3    -0.805386755106E+02    0.19460E-03   -0.13019E-03  8088   0.520E-01    0.115E-01
DAV:   4    -0.805387029306E+02   -0.27420E-04   -0.11614E-03  7096   0.698E-01    0.920E-02
DAV:   5    -0.805384870518E+02    0.21588E-03   -0.65430E-04  7440   0.364E-01    0.245E-02
DAV:   6    -0.805384987003E+02   -0.11649E-04   -0.13364E-04  7192   0.900E-02    0.147E-02
DAV:   7    -0.805384964784E+02    0.22219E-05   -0.20307E-05  5896   0.409E-02
  14 F= -.83628187E+02 E0= -.83634083E+02  d E =0.176888E-01
       N       E                     dE             d eps       ncg     rms          rms(c)
DAV:   1    -0.805340464560E+02    0.44522E-02   -0.65854E+00  8384   0.325E+00    0.424E-01
DAV:   2    -0.805403495695E+02   -0.63031E-02   -0.95613E-02  8560   0.662E-01    0.287E-01
DAV:   3    -0.805391109267E+02    0.12386E-02   -0.26494E-03  7840   0.160E-01    0.177E-01
DAV:   4    -0.805390206523E+02    0.90274E-04   -0.24165E-03  7248   0.631E-01    0.830E-02
DAV:   5    -0.805388972273E+02    0.12343E-03   -0.18613E-03  7328   0.761E-01    0.542E-02
DAV:   6    -0.805387824764E+02    0.11475E-03   -0.36311E-04  7160   0.285E-01    0.237E-02
DAV:   7    -0.805387824641E+02    0.12213E-07   -0.37740E-05  6392   0.426E-02
  15 F= -.83628359E+02 E0= -.83634228E+02  d E =0.176068E-01
       N       E                     dE             d eps       ncg     rms          rms(c)
DAV:   1    -0.805373766416E+02    0.14058E-02   -0.32822E+00  8600   0.219E+00    0.350E-01
DAV:   2    -0.805393054263E+02   -0.19288E-02   -0.46959E-02  8520   0.470E-01    0.217E-01
DAV:   3    -0.805384033365E+02    0.90209E-03   -0.31463E-03  7744   0.104E-01    0.939E-02
DAV:   4    -0.805383995150E+02    0.38216E-05   -0.10973E-03  6704   0.161E-01    0.320E-02
DAV:   5    -0.805384257923E+02   -0.26277E-04   -0.24708E-04  6752   0.253E-01    0.252E-02
DAV:   6    -0.805384039221E+02    0.21870E-04   -0.67831E-05  6328   0.164E-01    0.156E-02
DAV:   7    -0.805384047915E+02   -0.86933E-06   -0.81476E-06  4768   0.365E-02
  16 F= -.83628042E+02 E0= -.83633945E+02  d E =0.177108E-01
       N       E                     dE             d eps       ncg     rms          rms(c)
DAV:   1    -0.805341857492E+02    0.42182E-02   -0.65908E+00  8008   0.324E+00    0.428E-01
DAV:   2    -0.805397919255E+02   -0.56062E-02   -0.91541E-02  8664   0.655E-01    0.285E-01
DAV:   3    -0.805384432915E+02    0.13486E-02   -0.27399E-03  7888   0.148E-01    0.167E-01
DAV:   4    -0.805383031947E+02    0.14010E-03   -0.24467E-03  7240   0.562E-01    0.731E-02
DAV:   5    -0.805382652738E+02    0.37921E-04   -0.16908E-03  7328   0.728E-01    0.541E-02
DAV:   6    -0.805381326666E+02    0.13261E-03   -0.34375E-04  7224   0.301E-01    0.229E-02
DAV:   7    -0.805381333731E+02   -0.70651E-06   -0.34184E-05  6240   0.369E-02
  17 F= -.83627764E+02 E0= -.83633626E+02  d E =0.175856E-01
       N       E                     dE             d eps       ncg     rms          rms(c)
DAV:   1    -0.805336166038E+02    0.45161E-02   -0.33078E+00  8056   0.230E+00    0.387E-01
DAV:   2    -0.805364190632E+02   -0.28025E-02   -0.69237E-02  7992   0.912E-01    0.348E-01
DAV:   3    -0.805358185116E+02    0.60055E-03   -0.35788E-03  8048   0.690E-01    0.243E-01
DAV:   4    -0.805362915070E+02   -0.47300E-03   -0.25521E-03  7632   0.971E-01    0.194E-01
DAV:   5    -0.805353163064E+02    0.97520E-03   -0.21486E-03  7184   0.826E-01    0.417E-02
DAV:   6    -0.805353510834E+02   -0.34777E-04   -0.48304E-04  7616   0.121E-01    0.246E-02
DAV:   7    -0.805353519621E+02   -0.87871E-06   -0.36653E-05  7296   0.577E-02
  18 F= -.83624212E+02 E0= -.83630038E+02  d E =0.174754E-01
       N       E                     dE             d eps       ncg     rms          rms(c)
DAV:   1    -0.805351149168E+02    0.23617E-03   -0.66255E+00  7792   0.314E+00    0.747E-01
DAV:   2    -0.805377855303E+02   -0.26706E-02   -0.17450E-01  8384   0.160E+00    0.662E-01
DAV:   3    -0.805351098082E+02    0.26757E-02   -0.16828E-02  8344   0.137E+00    0.444E-01
DAV:   4    -0.805361396313E+02   -0.10298E-02   -0.85574E-03  8440   0.179E+00    0.348E-01
DAV:   5    -0.805338110332E+02    0.23286E-02   -0.59395E-03  7640   0.116E+00    0.971E-02
DAV:   6    -0.805338464492E+02   -0.35416E-04   -0.12056E-03  8416   0.259E-01    0.495E-02
DAV:   7    -0.805338155319E+02    0.30917E-04   -0.19531E-04  8512   0.160E-01    0.306E-02
DAV:   8    -0.805338096702E+02    0.58617E-05   -0.85328E-05  7048   0.506E-02
  19 F= -.83624219E+02 E0= -.83630166E+02  d E =0.178410E-01
