       N       E                     dE             d eps       ncg     rms          rms(c)
DAV:   1     0.229740677137E+04    0.22974E+04   -0.93500E+04  5760   0.161E+03
DAV:   2     0.292752674431E+03   -0.20047E+04   -0.19468E+04  5736   0.462E+02
DAV:   3    -0.615587243794E+02   -0.35431E+03   -0.34480E+03  6208   0.202E+02
DAV:   4    -0.938764433727E+02   -0.32318E+02   -0.31724E+02  6744   0.559E+01
DAV:   5    -0.971344564107E+02   -0.32580E+01   -0.32188E+01  9160   0.123E+01    0.441E+01
DAV:   6    -0.940352882029E+02    0.30992E+01   -0.59782E+00  8744   0.130E+01    0.275E+01
DAV:   7    -0.956686400518E+02   -0.16334E+01   -0.11904E+01  7312   0.179E+01    0.791E+00
DAV:   8    -0.944682492424E+02    0.12004E+01   -0.96439E+00  7712   0.130E+01    0.588E+00
DAV:   9    -0.935105258179E+02    0.95772E+00   -0.28159E+00  7296   0.522E+00    0.324E+00
DAV:  10    -0.935321473211E+02   -0.21622E-01   -0.81580E-01  6968   0.450E+00    0.140E+00
DAV:  11    -0.935126889856E+02    0.19458E-01   -0.11803E-01  7072   0.213E+00    0.550E-01
DAV:  12    -0.935154246887E+02   -0.27357E-02   -0.46083E-02  7280   0.908E-01    0.340E-01
DAV:  13    -0.935152159415E+02    0.20875E-03   -0.49998E-03  8280   0.311E-01    0.192E-01
DAV:  14    -0.935153378689E+02   -0.12193E-03   -0.11237E-03  7040   0.203E-01    0.614E-02
DAV:  15    -0.935153029836E+02    0.34885E-04   -0.44009E-04  6776   0.107E-01    0.502E-02
DAV:  16    -0.935152760907E+02    0.26893E-04   -0.10733E-04  5416   0.335E-02    0.256E-02
DAV:  17    -0.935153924874E+02   -0.11640E-03   -0.63761E-05  5392   0.478E-02    0.111E-02
DAV:  18    -0.935155548581E+02   -0.16237E-03   -0.84538E-05  4584   0.225E-02    0.870E-03
DAV:  19    -0.935157256865E+02   -0.17083E-03   -0.18901E-05  4624   0.144E-02    0.470E-03
DAV:  20    -0.935158883969E+02   -0.16271E-03   -0.13005E-05  4328   0.124E-02    0.476E-03
DAV:  21    -0.935160437051E+02   -0.15531E-03   -0.69129E-06  4224   0.825E-03    0.333E-03
DAV:  22    -0.935161449782E+02   -0.10127E-03   -0.58723E-06  4272   0.658E-03    0.263E-03
DAV:  23    -0.935161704231E+02   -0.25445E-04   -0.11189E-06  4040   0.558E-03    0.160E-03
DAV:  24    -0.935161777545E+02   -0.73313E-05   -0.57455E-07  3552   0.301E-03
   1 F= -.96595178E+02 E0= -.96585031E+02  d E =-.304410E-01
       N       E                     dE             d eps       ncg     rms          rms(c)
DAV:   1    -0.935153851843E+02    0.78524E-03   -0.13938E+00  4800   0.134E+00    0.261E-01
DAV:   2    -0.935159896864E+02   -0.60450E-03   -0.12897E-02  4656   0.138E-01    0.157E-01
DAV:   3    -0.935159720262E+02    0.17660E-04   -0.47130E-04  5296   0.341E-02    0.432E-02
DAV:   4    -0.935160116322E+02   -0.39606E-04   -0.83159E-05  5024   0.179E-02    0.144E-02
DAV:   5    -0.935160142141E+02   -0.25819E-05   -0.57213E-06  4288   0.151E-02
   2 F= -.96595015E+02 E0= -.96584868E+02  d E =-.304390E-01
       N       E                     dE             d eps       ncg     rms          rms(c)
DAV:   1    -0.935131256364E+02    0.28860E-02   -0.55588E+00  5024   0.269E+00    0.538E-01
DAV:   2    -0.935160300260E+02   -0.29044E-02   -0.55284E-02  4792   0.303E-01    0.318E-01
DAV:   3    -0.935157414876E+02    0.28854E-03   -0.18584E-03  5488   0.149E-01    0.127E-01
DAV:   4    -0.935164793683E+02   -0.73788E-03   -0.19710E-03  5816   0.358E-01    0.112E-01
DAV:   5    -0.935160016822E+02    0.47769E-03   -0.12364E-03  5512   0.318E-01    0.298E-02
DAV:   6    -0.935160099111E+02   -0.82289E-05   -0.41328E-05  5144   0.371E-02
   3 F= -.96595010E+02 E0= -.96584857E+02  d E =-.304605E-01
       N       E                     dE             d eps       ncg     rms          rms(c)
DAV:   1    -0.935142931661E+02    0.17085E-02   -0.27799E+00  4944   0.191E+00    0.373E-01
DAV:   2    -0.935159582255E+02   -0.16651E-02   -0.30104E-02  4696   0.218E-01    0.226E-01
DAV:   3    -0.935158865537E+02    0.71672E-04   -0.95221E-04  5344   0.115E-01    0.873E-02
DAV:   4    -0.935163372390E+02   -0.45069E-03   -0.13095E-03  5800   0.294E-01    0.924E-02
DAV:   5    -0.935160044075E+02    0.33283E-03   -0.75978E-04  5376   0.243E-01    0.190E-02
DAV:   6    -0.935160103051E+02   -0.58976E-05   -0.22526E-05  5080   0.186E-02
   4 F= -.96595011E+02 E0= -.96584859E+02  d E =-.304545E-01
       N       E                     dE             d eps       ncg     rms          rms(c)
DAV:   1    -0.935129906464E+02    0.30138E-02   -0.55583E+00  5048   0.269E+00    0.539E-01
DAV:   2    -0.935161677063E+02   -0.31771E-02   -0.56700E-02  4800   0.291E-01    0.320E-01
DAV:   3    -0.935157618714E+02    0.40583E-03   -0.17172E-03  5400   0.919E-02    0.129E-01
DAV:   4    -0.935160441075E+02   -0.28224E-03   -0.53379E-04  5256   0.138E-01    0.477E-02
DAV:   5    -0.935160354086E+02    0.86990E-05   -0.40734E-04  5240   0.168E-01    0.391E-02
DAV:   6    -0.935160067161E+02    0.28692E-04   -0.88515E-05  4992   0.803E-02    0.133E-02
DAV:   7    -0.935160090425E+02   -0.23264E-05   -0.72681E-06  3960   0.182E-02
   5 F= -.96595009E+02 E0= -.96584861E+02  d E =-.304452E-01
       N       E                     dE             d eps       ncg     rms          rms(c)
DAV:   1    -0.934906745768E+02    0.25332E-01   -0.29951E+00  4992   0.198E+00    0.506E-01
DAV:   2    -0.934930346128E+02   -0.23600E-02   -0.53083E-02  5112   0.518E-01    0.361E-01
DAV:   3    -0.934931178987E+02   -0.83286E-04   -0.77676E-03  6224   0.749E-01    0.302E-01
DAV:   4    -0.934921005519E+02    0.10173E-02   -0.62015E-03  5800   0.606E-01    0.228E-01
DAV:   5    -0.934916610163E+02    0.43954E-03   -0.10780E-03  5192   0.231E-01    0.694E-02
DAV:   6    -0.934916465042E+02    0.14512E-04   -0.24248E-04  5736   0.575E-02    0.203E-02
DAV:   7    -0.934916636950E+02   -0.17191E-04   -0.43745E-05  5232   0.298E-02    0.178E-02
DAV:   8    -0.934916829990E+02   -0.19304E-04   -0.95747E-06  4176   0.108E-02    0.123E-02
DAV:   9    -0.934917133504E+02   -0.30351E-04   -0.54530E-06  4240   0.133E-02    0.396E-03
DAV:  10    -0.934917221875E+02   -0.88371E-05   -0.16247E-06  3744   0.754E-03
   6 F= -.96570336E+02 E0= -.96560293E+02  d E =-.301279E-01
       N       E                     dE             d eps       ncg     rms          rms(c)
DAV:   1    -0.934881837274E+02    0.35296E-02   -0.66485E+00  5176   0.290E+00    0.936E-01
DAV:   2    -0.934918770078E+02   -0.36933E-02   -0.13973E-01  5656   0.896E-01    0.591E-01
DAV:   3    -0.934961804818E+02   -0.43035E-02   -0.39705E-02  7792   0.170E+00    0.524E-01
DAV:   4    -0.934878805836E+02    0.82999E-02   -0.28966E-02  6768   0.145E+00    0.228E-01
DAV:   5    -0.934872248623E+02    0.65572E-03   -0.23925E-03  6608   0.288E-01    0.932E-02
DAV:   6    -0.934872248914E+02   -0.29078E-07   -0.47715E-04  6488   0.739E-02    0.402E-02
DAV:   7    -0.934871926270E+02    0.32264E-04   -0.12179E-04  5488   0.679E-02    0.182E-02
DAV:   8    -0.934872024826E+02   -0.98556E-05   -0.32017E-05  5184   0.186E-02
   7 F= -.96566577E+02 E0= -.96556379E+02  d E =-.305937E-01
       N       E                     dE             d eps       ncg     rms          rms(c)
DAV:   1    -0.935147213494E+02   -0.27529E-01   -0.30897E+00  4904   0.191E+00    0.508E-01
DAV:   2    -0.935167914311E+02   -0.20701E-02   -0.54932E-02  5016   0.471E-01    0.366E-01
DAV:   3    -0.935166481562E+02    0.14327E-03   -0.56905E-03  6048   0.592E-01    0.291E-01
DAV:   4    -0.935163680006E+02    0.28016E-03   -0.61188E-03  6040   0.630E-01    0.250E-01
DAV:   5    -0.935157647369E+02    0.60326E-03   -0.14602E-03  5440   0.324E-01    0.736E-02
DAV:   6    -0.935157789780E+02   -0.14241E-04   -0.32928E-04  6016   0.604E-02    0.231E-02
DAV:   7    -0.935157851555E+02   -0.61775E-05   -0.44836E-05  5272   0.244E-02
   8 F= -.96594783E+02 E0= -.96584631E+02  d E =-.304546E-01
       N       E                     dE             d eps       ncg     rms          rms(c)
DAV:   1    -0.935124021526E+02    0.33768E-02   -0.56948E+00  5192   0.244E+00    0.484E-01
DAV:   2    -0.935159620553E+02   -0.35599E-02   -0.55182E-02  5168   0.303E-01    0.294E-01
DAV:   3    -0.935156070008E+02    0.35505E-03   -0.16393E-03  5608   0.954E-02    0.124E-01
DAV:   4    -0.935158404106E+02   -0.23341E-03   -0.52788E-04  5256   0.143E-01    0.454E-02
DAV:   5    -0.935158093024E+02    0.31108E-04   -0.36832E-04  5344   0.159E-01    0.331E-02
DAV:   6    -0.935157952656E+02    0.14037E-04   -0.59790E-05  4744   0.674E-02    0.122E-02
DAV:   7    -0.935157984556E+02   -0.31900E-05   -0.91497E-06  4000   0.205E-02
   9 F= -.96594796E+02 E0= -.96584650E+02  d E =-.304390E-01
       N       E                     dE             d eps       ncg     rms          rms(c)
DAV:   1    -0.935142022682E+02    0.15930E-02   -0.28519E+00  5016   0.173E+00    0.335E-01
DAV:   2    -0.935158510712E+02   -0.16488E-02   -0.26429E-02  5136   0.206E-01    0.206E-01
DAV:   3    -0.935157245836E+02    0.12649E-03   -0.83663E-04  5560   0.725E-02    0.754E-02
DAV:   4    -0.935159333730E+02   -0.20879E-03   -0.59597E-04  5712   0.191E-01    0.604E-02
DAV:   5    -0.935158000975E+02    0.13328E-03   -0.35167E-04  5336   0.169E-01    0.163E-02
DAV:   6    -0.935158039814E+02   -0.38839E-05   -0.18214E-05  4576   0.264E-02
  10 F= -.96594802E+02 E0= -.96584651E+02  d E =-.304534E-01
       N       E                     dE             d eps       ncg     rms          rms(c)
DAV:   1    -0.935124249124E+02    0.33752E-02   -0.56940E+00  5128   0.244E+00    0.482E-01
DAV:   2    -0.935160563817E+02   -0.36315E-02   -0.55009E-02  5184   0.295E-01    0.294E-01
DAV:   3    -0.935157010859E+02    0.35530E-03   -0.16886E-03  5592   0.132E-01    0.128E-01
DAV:   4    -0.935164518693E+02   -0.75078E-03   -0.24310E-03  5896   0.396E-01    0.132E-01
DAV:   5    -0.935157945248E+02    0.65734E-03   -0.15267E-03  5888   0.340E-01    0.246E-02
DAV:   6    -0.935158037430E+02   -0.92182E-05   -0.50764E-05  4872   0.391E-02
  11 F= -.96594802E+02 E0= -.96584646E+02  d E =-.304679E-01
       N       E                     dE             d eps       ncg     rms          rms(c)
DAV:   1    -0.934893566450E+02    0.26438E-01   -0.31380E+00  5104   0.192E+00    0.590E-01
DAV:   2    -0.934910428965E+02   -0.16863E-02   -0.45801E-02  5072   0.640E-01    0.407E-01
DAV:   3    -0.934930205638E+02   -0.19777E-02   -0.20006E-02  7192   0.122E+00    0.435E-01
DAV:   4    -0.934889866772E+02    0.40339E-02   -0.10291E-02  5936   0.863E-01    0.102E-01
DAV:   5    -0.934889600416E+02    0.26636E-04   -0.83774E-04  6712   0.135E-01    0.527E-02
DAV:   6    -0.934889419172E+02    0.18124E-04   -0.22610E-04  5712   0.866E-02    0.338E-02
DAV:   7    -0.934889367389E+02    0.51784E-05   -0.42735E-05  5424   0.291E-02
  12 F= -.96567295E+02 E0= -.96557082E+02  d E =-.306389E-01
       N       E                     dE             d eps       ncg     rms          rms(c)
DAV:   1    -0.934974204027E+02   -0.84785E-02   -0.66708E+00  5176   0.276E+00    0.114E+00
DAV:   2    -0.934995501232E+02   -0.21297E-02   -0.12167E-01  6408   0.131E+00    0.765E-01
DAV:   3    -0.935055823147E+02   -0.60322E-02   -0.75534E-02  8080   0.216E+00    0.870E-01
DAV:   4    -0.934907159823E+02    0.14866E-01   -0.32335E-02  6488   0.128E+00    0.319E-01
DAV:   5    -0.934906635418E+02    0.52441E-04   -0.32897E-03  6968   0.285E-01    0.112E-01
DAV:   6    -0.934905561517E+02    0.10739E-03   -0.91410E-04  6848   0.201E-01    0.579E-02
DAV:   7    -0.934906099448E+02   -0.53793E-04   -0.16524E-04  6056   0.553E-02    0.215E-02
DAV:   8    -0.934906610930E+02   -0.51148E-04   -0.37288E-05  5512   0.327E-02    0.121E-02
DAV:   9    -0.934906916970E+02   -0.30604E-04   -0.68347E-06  4144   0.118E-02    0.759E-03
DAV:  10    -0.934907492569E+02   -0.57560E-04   -0.77171E-06  4312   0.986E-03    0.266E-03
DAV:  11    -0.934907875415E+02   -0.38285E-04   -0.37811E-06  4280   0.737E-03    0.201E-03
DAV:  12    -0.934908238005E+02   -0.36259E-04   -0.49248E-06  4304   0.380E-03    0.120E-03
DAV:  13    -0.934908434817E+02   -0.19681E-04   -0.28422E-06  4256   0.344E-03    0.879E-04
DAV:  14    -0.934908493202E+02   -0.58385E-05   -0.72715E-07  4008   0.282E-03
  13 F= -.96570494E+02 E0= -.96560485E+02  d E =-.300252E-01
