       N       E                     dE             d eps       ncg     rms          rms(c)
DAV:   1     0.258946862451E+04    0.25895E+04   -0.81850E+04  6360   0.197E+03
DAV:   2     0.387350990818E+03   -0.22021E+04   -0.21450E+04  6544   0.635E+02
DAV:   3    -0.284106432552E+02   -0.41576E+03   -0.39712E+03  7080   0.252E+02
DAV:   4    -0.689783056033E+02   -0.40568E+02   -0.39336E+02  8344   0.817E+01
DAV:   5    -0.706012382736E+02   -0.16229E+01   -0.16016E+01  8672   0.175E+01    0.149E+01
RMM:   6    -0.646150559793E+02    0.59862E+01   -0.17333E+01  6888   0.135E+01    0.462E+00
RMM:   7    -0.644893715269E+02    0.12568E+00   -0.63388E+00  7078   0.738E+00    0.256E+00
RMM:   8    -0.644075829338E+02    0.81789E-01   -0.16039E+00  7675   0.376E+00    0.210E+00
RMM:   9    -0.643151605174E+02    0.92422E-01   -0.39292E-01  7511   0.226E+00    0.136E+00
RMM:  10    -0.643145691438E+02    0.59137E-03   -0.26158E-01  8539   0.112E+00    0.439E-01
RMM:  11    -0.643223470251E+02   -0.77779E-02   -0.59225E-02  8013   0.583E-01    0.433E-01
RMM:  12    -0.643160073590E+02    0.63397E-02   -0.24995E-02  8493   0.311E-01    0.232E-01
RMM:  13    -0.643148316575E+02    0.11757E-02   -0.13569E-02  7707   0.297E-01    0.879E-02
RMM:  14    -0.643156903225E+02   -0.85866E-03   -0.57684E-03  7066   0.151E-01    0.811E-02
RMM:  15    -0.643165131694E+02   -0.82285E-03   -0.28787E-03  6851   0.922E-02    0.675E-02
RMM:  16    -0.643166422342E+02   -0.12906E-03   -0.16507E-03  5541   0.938E-02    0.183E-02
RMM:  17    -0.643169106666E+02   -0.26843E-03   -0.90686E-04  5007   0.445E-02    0.182E-02
RMM:  18    -0.643171040576E+02   -0.19339E-03   -0.26021E-04  4595   0.283E-02    0.156E-02
RMM:  19    -0.643172915763E+02   -0.18752E-03   -0.22192E-04  4496   0.244E-02    0.929E-03
RMM:  20    -0.643174416558E+02   -0.15008E-03   -0.10292E-04  4135   0.178E-02    0.662E-03
RMM:  21    -0.643177681106E+02   -0.32645E-03   -0.62092E-05  4241   0.141E-02    0.405E-03
RMM:  22    -0.643178855021E+02   -0.11739E-03   -0.38009E-05  4001   0.116E-02    0.311E-03
RMM:  23    -0.643179404317E+02   -0.54930E-04   -0.22742E-05  3875   0.821E-03    0.217E-03
RMM:  24    -0.643179537271E+02   -0.13295E-04   -0.87499E-06  3782   0.761E-03    0.106E-03
RMM:  25    -0.643179570252E+02   -0.32981E-05   -0.48743E-06  3348   0.516E-03
   1 F= -.67228262E+02 E0= -.67222915E+02  d E =-.672283E+02
       N       E                     dE             d eps       ncg     rms          rms(c)
DAV:   1    -0.642306264065E+02    0.87327E-01   -0.15722E+01  7120   0.241E+01    0.670E-01
RMM:   2    -0.643662669204E+02   -0.13564E+00   -0.14280E+00  7660   0.427E+00    0.219E-01
RMM:   3    -0.643882640921E+02   -0.21997E-01   -0.19111E-01  8745   0.164E+00    0.241E-01
RMM:   4    -0.643892237930E+02   -0.95970E-03   -0.20157E-02  8748   0.578E-01    0.205E-01
RMM:   5    -0.643891880638E+02    0.35729E-04   -0.46232E-03  8719   0.263E-01    0.176E-01
RMM:   6    -0.643890084454E+02    0.17962E-03   -0.96893E-04  7864   0.159E-01    0.112E-01
RMM:   7    -0.643890445148E+02   -0.36069E-04   -0.57920E-04  7113   0.907E-02    0.434E-02
RMM:   8    -0.643890756210E+02   -0.31106E-04   -0.18143E-04  5595   0.553E-02    0.203E-02
RMM:   9    -0.643890764010E+02   -0.78001E-06   -0.51798E-05  4596   0.324E-02
   2 F= -.67301567E+02 E0= -.67295341E+02  d E =-.733045E-01
       N       E                     dE             d eps       ncg     rms          rms(c)
DAV:   1    -0.640267080775E+02    0.36237E+00   -0.48963E+01  6496   0.381E+01    0.111E+00
RMM:   2    -0.643806739977E+02   -0.35397E+00   -0.37347E+00  7731   0.724E+00    0.352E-01
RMM:   3    -0.644328999947E+02   -0.52226E-01   -0.47451E-01  8765   0.278E+00    0.352E-01
RMM:   4    -0.644368868682E+02   -0.39869E-02   -0.58631E-02  8779   0.996E-01    0.294E-01
RMM:   5    -0.644374988777E+02   -0.61201E-03   -0.12669E-02  8807   0.452E-01    0.253E-01
RMM:   6    -0.644372463678E+02    0.25251E-03   -0.28075E-03  8117   0.232E-01    0.173E-01
RMM:   7    -0.644373557828E+02   -0.10941E-03   -0.13942E-03  7990   0.155E-01    0.584E-02
RMM:   8    -0.644374296773E+02   -0.73895E-04   -0.41131E-04  7062   0.732E-02    0.325E-02
RMM:   9    -0.644374243058E+02    0.53715E-05   -0.12280E-04  5334   0.505E-02    0.199E-02
RMM:  10    -0.644374239289E+02    0.37692E-06   -0.64920E-05  4568   0.311E-02
   3 F= -.67354743E+02 E0= -.67346964E+02  d E =-.126481E+00
       N       E                     dE             d eps       ncg     rms          rms(c)
DAV:   1    -0.644366704402E+02    0.75387E-03   -0.66210E-02  7192   0.137E+00    0.477E-02
RMM:   2    -0.644372140037E+02   -0.54356E-03   -0.57916E-03  7250   0.281E-01    0.131E-02
RMM:   3    -0.644373568936E+02   -0.14289E-03   -0.12052E-03  7229   0.110E-01    0.198E-02
RMM:   4    -0.644373588402E+02   -0.19465E-05   -0.11050E-04  5479   0.674E-02    0.155E-02
RMM:   5    -0.644373599588E+02   -0.11187E-05   -0.35367E-05  3958   0.262E-02
   4 F= -.67354883E+02 E0= -.67347050E+02  d E =-.126621E+00
       N       E                     dE             d eps       ncg     rms          rms(c)
DAV:   1    -0.644290293887E+02    0.83295E-02   -0.29779E+00  7008   0.834E+00    0.244E-01
RMM:   2    -0.644450435701E+02   -0.16014E-01   -0.16926E-01  7405   0.167E+00    0.101E-01
RMM:   3    -0.644488328093E+02   -0.37892E-02   -0.32975E-02  8574   0.734E-01    0.117E-01
RMM:   4    -0.644487570887E+02    0.75721E-04   -0.38827E-03  8687   0.267E-01    0.802E-02
RMM:   5    -0.644487798115E+02   -0.22723E-04   -0.81607E-04  8345   0.115E-01    0.673E-02
RMM:   6    -0.644487588794E+02    0.20932E-04   -0.21949E-04  7113   0.762E-02    0.341E-02
RMM:   7    -0.644487699180E+02   -0.11039E-04   -0.79774E-05  5291   0.398E-02    0.136E-02
RMM:   8    -0.644487726848E+02   -0.27668E-05   -0.20453E-05  3855   0.294E-02
   5 F= -.67365224E+02 E0= -.67357353E+02  d E =-.103408E-01
       N       E                     dE             d eps       ncg     rms          rms(c)
DAV:   1    -0.644288372326E+02    0.19933E-01   -0.44851E+00  6776   0.104E+01    0.305E-01
RMM:   2    -0.644529721165E+02   -0.24135E-01   -0.25596E-01  7422   0.199E+00    0.121E-01
RMM:   3    -0.644587236948E+02   -0.57516E-02   -0.50185E-02  8585   0.897E-01    0.140E-01
RMM:   4    -0.644586635857E+02    0.60109E-04   -0.60439E-03  8826   0.324E-01    0.961E-02
RMM:   5    -0.644586904367E+02   -0.26851E-04   -0.11929E-03  8476   0.141E-01    0.802E-02
RMM:   6    -0.644586599619E+02    0.30475E-04   -0.31901E-04  7395   0.921E-02    0.412E-02
RMM:   7    -0.644586754829E+02   -0.15521E-04   -0.12332E-04  6206   0.477E-02    0.167E-02
RMM:   8    -0.644586802486E+02   -0.47656E-05   -0.31433E-05  4151   0.366E-02
   6 F= -.67373851E+02 E0= -.67365963E+02  d E =-.189686E-01
       N       E                     dE             d eps       ncg     rms          rms(c)
DAV:   1    -0.643406419134E+02    0.11803E+00   -0.17974E+01  6616   0.212E+01    0.619E-01
RMM:   2    -0.644427325187E+02   -0.10209E+00   -0.10852E+00  7553   0.409E+00    0.227E-01
RMM:   3    -0.644644740080E+02   -0.21741E-01   -0.19325E-01  8617   0.178E+00    0.255E-01
RMM:   4    -0.644652742038E+02   -0.80020E-03   -0.24957E-02  8865   0.643E-01    0.194E-01
RMM:   5    -0.644653819144E+02   -0.10771E-03   -0.49394E-03  8524   0.282E-01    0.162E-01
RMM:   6    -0.644652418033E+02    0.14011E-03   -0.12576E-03  7581   0.178E-01    0.885E-02
RMM:   7    -0.644652961823E+02   -0.54379E-04   -0.52897E-04  8099   0.948E-02    0.353E-02
RMM:   8    -0.644653164395E+02   -0.20257E-04   -0.12115E-04  6046   0.503E-02    0.184E-02
RMM:   9    -0.644653140083E+02    0.24312E-05   -0.37266E-05  4321   0.350E-02
   7 F= -.67378053E+02 E0= -.67370211E+02  d E =-.231707E-01
       N       E                     dE             d eps       ncg     rms          rms(c)
DAV:   1    -0.644535831994E+02    0.11733E-01   -0.17654E+00  6880   0.630E+00    0.177E-01
RMM:   2    -0.644630018875E+02   -0.94187E-02   -0.99608E-02  7399   0.126E+00    0.721E-02
RMM:   3    -0.644651489041E+02   -0.21470E-02   -0.18800E-02  8552   0.543E-01    0.845E-02
RMM:   4    -0.644651470821E+02    0.18220E-05   -0.21527E-03  8507   0.203E-01    0.614E-02
RMM:   5    -0.644651606774E+02   -0.13595E-04   -0.47689E-04  7921   0.871E-02    0.510E-02
RMM:   6    -0.644651476982E+02    0.12979E-04   -0.13977E-04  6243   0.587E-02    0.259E-02
RMM:   7    -0.644651534456E+02   -0.57474E-05   -0.43310E-05  4436   0.339E-02
   8 F= -.67378636E+02 E0= -.67370778E+02  d E =-.237536E-01
       N       E                     dE             d eps       ncg     rms          rms(c)
DAV:   1    -0.644646462580E+02    0.50144E-03   -0.11311E-01  7280   0.161E+00    0.433E-02
RMM:   2    -0.644652419667E+02   -0.59571E-03   -0.62361E-03  7258   0.304E-01    0.179E-02
RMM:   3    -0.644653598667E+02   -0.11790E-03   -0.10661E-03  7870   0.136E-01    0.204E-02
RMM:   4    -0.644653633101E+02   -0.34434E-05   -0.13223E-04  6021   0.566E-02    0.160E-02
RMM:   5    -0.644653632089E+02    0.10120E-06   -0.22621E-05  3706   0.318E-02
   9 F= -.67378656E+02 E0= -.67370792E+02  d E =-.237734E-01
       N       E                     dE             d eps       ncg     rms          rms(c)
DAV:   1    -0.644650909660E+02    0.27234E-03   -0.30619E-02  7032   0.834E-01    0.270E-02
RMM:   2    -0.644652356688E+02   -0.14470E-03   -0.15506E-03  7315   0.159E-01    0.101E-02
RMM:   3    -0.644652693015E+02   -0.33633E-04   -0.28575E-04  6280   0.683E-02    0.952E-03
RMM:   4    -0.644652692970E+02    0.45329E-08   -0.40865E-05  4226   0.479E-02
  10 F= -.67378661E+02 E0= -.67370790E+02  d E =-.237781E-01
       N       E                     dE             d eps       ncg     rms          rms(c)
DAV:   1    -0.644652789648E+02   -0.96632E-05   -0.74883E-03  7032   0.417E-01    0.135E-02
RMM:   2    -0.644653136303E+02   -0.34666E-04   -0.38092E-04  6554   0.829E-02    0.506E-03
RMM:   3    -0.644653198960E+02   -0.62657E-05   -0.68331E-05  4567   0.370E-02
  11 F= -.67378662E+02 E0= -.67370799E+02  d E =-.237793E-01
       N       E                     dE             d eps       ncg     rms          rms(c)
DAV:   1    -0.644652907916E+02    0.22839E-04   -0.13904E-03  7624   0.187E-01    0.675E-03
RMM:   2    -0.644652996857E+02   -0.88941E-05   -0.90311E-05  5259   0.443E-02
  12 F= -.67378663E+02 E0= -.67370793E+02  d E =-.237807E-01
       N       E                     dE             d eps       ncg     rms          rms(c)
DAV:   1    -0.644653075845E+02   -0.16793E-04   -0.40113E-04  7648   0.119E-01    0.389E-03
RMM:   2    -0.644653132462E+02   -0.56617E-05   -0.43290E-05  4385   0.394E-02
  13 F= -.67378665E+02 E0= -.67370792E+02  d E =-.237822E-01
       N       E                     dE             d eps       ncg     rms          rms(c)
DAV:   1    -0.644653044389E+02    0.31456E-05   -0.91764E-05  6872   0.728E-02    0.269E-03
RMM:   2    -0.644653062000E+02   -0.17611E-05   -0.17553E-05  3162   0.235E-02
  14 F= -.67378664E+02 E0= -.67370798E+02  d E =-.237812E-01
       N       E                     dE             d eps       ncg     rms          rms(c)
DAV:   1    -0.644653085590E+02   -0.41201E-05   -0.11685E-05  4224   0.354E-02    0.136E-03
RMM:   2    -0.644653091023E+02   -0.54328E-06   -0.40671E-06  2910   0.108E-02
  15 F= -.67378664E+02 E0= -.67370797E+02  d E =-.237816E-01
       N       E                     dE             d eps       ncg     rms          rms(c)
DAV:   1    -0.644633524490E+02    0.19561E-02   -0.12530E+00  6544   0.465E+00    0.115E-01
RMM:   2    -0.644679743088E+02   -0.46219E-02   -0.47979E-02  7193   0.102E+00    0.724E-02
RMM:   3    -0.644695540641E+02   -0.15798E-02   -0.14978E-02  8492   0.449E-01    0.668E-02
RMM:   4    -0.644696185308E+02   -0.64467E-04   -0.19495E-03  8618   0.166E-01    0.422E-02
RMM:   5    -0.644696396920E+02   -0.21161E-04   -0.37908E-04  7194   0.764E-02    0.338E-02
RMM:   6    -0.644696379201E+02    0.17719E-05   -0.91160E-05  5529   0.495E-02
  16 F= -.67380984E+02 E0= -.67373113E+02  d E =-.231963E-02
       N       E                     dE             d eps       ncg     rms          rms(c)
DAV:   1    -0.644701284808E+02   -0.48879E-03   -0.22898E-01  6864   0.197E+00    0.524E-02
RMM:   2    -0.644709268207E+02   -0.79834E-03   -0.84782E-03  7219   0.418E-01    0.311E-02
RMM:   3    -0.644711969495E+02   -0.27013E-03   -0.24927E-03  8168   0.187E-01    0.299E-02
RMM:   4    -0.644712035669E+02   -0.66174E-05   -0.33909E-04  7220   0.764E-02    0.174E-02
RMM:   5    -0.644712072832E+02   -0.37163E-05   -0.66738E-05  4754   0.399E-02
  17 F= -.67381701E+02 E0= -.67373818E+02  d E =-.303632E-02
