       N       E                     dE             d eps       ncg     rms          rms(c)
DAV:   1     0.525839928466E+03    0.52584E+03   -0.14359E+04  2000   0.907E+02
DAV:   2     0.628159979248E+02   -0.46302E+03   -0.44697E+03  2288   0.263E+02
DAV:   3    -0.652639695376E+02   -0.12808E+03   -0.12389E+03  3824   0.145E+02
DAV:   4    -0.839269255369E+02   -0.18663E+02   -0.17665E+02  3432   0.671E+01
DAV:   5    -0.852472482529E+02   -0.13203E+01   -0.12546E+01  3416   0.182E+01    0.418E+01
RMM:   6    -0.886724889758E+02   -0.34252E+01   -0.36700E+01  2444   0.376E+01    0.184E+01
RMM:   7    -0.921336807291E+02   -0.34612E+01   -0.32314E+01  2529   0.347E+01    0.182E+01
RMM:   8    -0.765138379206E+02    0.15620E+02   -0.13298E+01  2549   0.193E+01    0.832E+00
RMM:   9    -0.751848478028E+02    0.13290E+01   -0.25928E+00  2316   0.112E+01    0.400E+00
RMM:  10    -0.754689412975E+02   -0.28409E+00   -0.19858E+00  2761   0.486E+00    0.393E+00
RMM:  11    -0.751798492982E+02    0.28909E+00   -0.58621E-01  2663   0.332E+00    0.112E+00
RMM:  12    -0.751790297404E+02    0.81956E-03   -0.11649E-01  2600   0.183E+00    0.116E+00
RMM:  13    -0.751743344502E+02    0.46953E-02   -0.69050E-02  2827   0.919E-01    0.720E-01
RMM:  14    -0.751711934739E+02    0.31410E-02   -0.13531E-02  2766   0.444E-01    0.451E-01
RMM:  15    -0.751699930983E+02    0.12004E-02   -0.80740E-03  2784   0.292E-01    0.162E-01
RMM:  16    -0.751704978995E+02   -0.50480E-03   -0.22117E-03  2778   0.181E-01    0.173E-01
RMM:  17    -0.751703454560E+02    0.15244E-03   -0.73139E-04  2548   0.100E-01    0.318E-02
RMM:  18    -0.751707923751E+02   -0.44692E-03   -0.66531E-04  2537   0.941E-02    0.123E-01
RMM:  19    -0.751708436486E+02   -0.51273E-04   -0.28633E-04  2295   0.726E-02    0.149E-02
RMM:  20    -0.751711028583E+02   -0.25921E-03   -0.13596E-04  2039   0.484E-02    0.386E-02
RMM:  21    -0.751713706630E+02   -0.26780E-03   -0.34513E-05  1511   0.348E-02    0.696E-03
RMM:  22    -0.751716713593E+02   -0.30070E-03   -0.26515E-05  1476   0.249E-02    0.769E-03
RMM:  23    -0.751717848296E+02   -0.11347E-03   -0.10289E-05  1316   0.225E-02    0.937E-03
RMM:  24    -0.751718836256E+02   -0.98796E-04   -0.13781E-05  1354   0.171E-02    0.618E-03
RMM:  25    -0.751719082297E+02   -0.24604E-04   -0.45264E-06  1233   0.159E-02    0.363E-03
RMM:  26    -0.751719213044E+02   -0.13075E-04   -0.14970E-06  1217   0.117E-02    0.292E-03
RMM:  27    -0.751719266395E+02   -0.53350E-05   -0.16293E-06  1113   0.976E-03
   1 F= -.78317391E+02 E0= -.78314967E+02  d E =-.783174E+02
       N       E                     dE             d eps       ncg     rms          rms(c)
DAV:   1    -0.398491865384E+02    0.35323E+02   -0.24373E+03  2112   0.221E+02    0.359E+01
RMM:   2    -0.612500534271E+02   -0.21401E+02   -0.46456E+02  3361   0.169E+02    0.225E+01
RMM:   3    -0.711171768822E+02   -0.98671E+01   -0.27802E+02  3190   0.751E+01    0.206E+01
RMM:   4    -0.802810660193E+02   -0.91639E+01   -0.13134E+02  3172   0.492E+01    0.223E+01
RMM:   5    -0.680759021502E+02    0.12205E+02   -0.34210E+01  2891   0.237E+01    0.165E+01
RMM:   6    -0.138308232151E+03   -0.70232E+02   -0.56717E+01  2813   0.298E+01    0.395E+01
RMM:   7    -0.110114120055E+03    0.28194E+02   -0.57427E+00  2358   0.160E+01    0.339E+01
RMM:   8    -0.663958257353E+02    0.43718E+02   -0.18711E+01  2792   0.151E+01    0.189E+01
RMM:   9    -0.638867582394E+02    0.25091E+01   -0.17034E+01  3051   0.111E+01    0.439E+00
RMM:  10    -0.671629878453E+02   -0.32762E+01   -0.18695E+01  3136   0.102E+01    0.837E+00
RMM:  11    -0.669309307827E+02    0.23206E+00   -0.72952E+00  3221   0.555E+00    0.808E+00
RMM:  12    -0.683143719829E+02   -0.13834E+01   -0.50038E+00  3317   0.389E+00    0.103E+01
RMM:  13    -0.689253001916E+02   -0.61093E+00   -0.33526E+00  3434   0.279E+00    0.114E+01
RMM:  14    -0.670729755459E+02    0.18523E+01   -0.20778E+00  2971   0.317E+00    0.103E+01
RMM:  15    -0.673587838839E+02   -0.28581E+00   -0.15340E+00  3224   0.179E+00    0.113E+01
RMM:  16    -0.673296336012E+02    0.29150E-01   -0.11907E+00  3067   0.239E+00    0.134E+01
RMM:  17    -0.662981604537E+02    0.10315E+01   -0.19079E+00  3217   0.486E+00    0.182E+01
RMM:  18    -0.665509562853E+02   -0.25280E+00   -0.12112E+00  3031   0.369E+00    0.150E+01
RMM:  19    -0.655592719413E+02    0.99168E+00   -0.90978E-01  3042   0.241E+00    0.113E+01
RMM:  20    -0.656388272698E+02   -0.79555E-01   -0.57829E-01  3150   0.953E-01    0.115E+01
RMM:  21    -0.656049075759E+02    0.33920E-01   -0.38252E-01  3185   0.691E-01    0.115E+01
RMM:  22    -0.656392353274E+02   -0.34328E-01   -0.32018E-01  3280   0.494E-01    0.116E+01
RMM:  23    -0.656691872200E+02   -0.29952E-01   -0.23306E-01  3075   0.421E-01    0.119E+01
RMM:  24    -0.657078423897E+02   -0.38655E-01   -0.15903E-01  2912   0.330E-01    0.122E+01
RMM:  25    -0.660664981849E+02   -0.35866E+00   -0.30982E-01  3495   0.147E+00    0.126E+01
RMM:  26    -0.662043085526E+02   -0.13781E+00   -0.22924E-01  3426   0.115E+00    0.125E+01
RMM:  27    -0.659659533400E+02    0.23836E+00   -0.13532E-01  3372   0.997E-01    0.112E+01
RMM:  28    -0.652668709587E+02    0.69908E+00   -0.19274E-01  3330   0.104E+00    0.784E+00
RMM:  29    -0.651495403407E+02    0.11733E+00   -0.13429E-01  3263   0.551E-01    0.655E+00
RMM:  30    -0.651929824135E+02   -0.43442E-01   -0.28966E-02  3067   0.295E-01    0.678E+00
RMM:  31    -0.651051501480E+02    0.87832E-01   -0.32216E-02  3110   0.344E-01    0.593E+00
RMM:  32    -0.650544985109E+02    0.50652E-01   -0.50014E-02  3188   0.389E-01    0.512E+00
RMM:  33    -0.652028539247E+02   -0.14836E+00   -0.55292E-02  3421   0.643E-01    0.647E+00
RMM:  34    -0.651064024824E+02    0.96451E-01   -0.68078E-02  3407   0.718E-01    0.549E+00
RMM:  35    -0.650994766581E+02    0.69258E-02   -0.42050E-02  3240   0.343E-01    0.525E+00
RMM:  36    -0.649701909386E+02    0.12929E+00   -0.51384E-02  3267   0.465E-01    0.340E+00
RMM:  37    -0.649679349160E+02    0.22560E-02   -0.52266E-02  3228   0.426E-01    0.314E+00
RMM:  38    -0.649187099822E+02    0.49225E-01   -0.84499E-02  3341   0.598E-01    0.125E+00
RMM:  39    -0.649286245811E+02   -0.99146E-02   -0.85950E-02  3244   0.373E-01    0.654E-01
RMM:  40    -0.649335239325E+02   -0.48994E-02   -0.32420E-02  3195   0.326E-01    0.309E-01
RMM:  41    -0.649390392701E+02   -0.55153E-02   -0.19717E-02  3101   0.251E-01    0.694E-01
RMM:  42    -0.649360430501E+02    0.29962E-02   -0.17911E-02  3045   0.226E-01    0.306E-01
RMM:  43    -0.649362751437E+02   -0.23209E-03   -0.15117E-02  3143   0.243E-01    0.224E-01
RMM:  44    -0.649369881816E+02   -0.71304E-03   -0.78002E-03  2730   0.105E-01    0.148E-01
RMM:  45    -0.649375888189E+02   -0.60064E-03   -0.50395E-03  2275   0.833E-02    0.147E-01
RMM:  46    -0.649382622605E+02   -0.67344E-03   -0.46024E-03  2316   0.695E-02    0.213E-01
RMM:  47    -0.649388198008E+02   -0.55754E-03   -0.54719E-03  2848   0.109E-01    0.267E-01
RMM:  48    -0.649387452064E+02    0.74594E-04   -0.32614E-03  2210   0.660E-02    0.112E-01
RMM:  49    -0.649391615810E+02   -0.41637E-03   -0.30352E-03  1993   0.530E-02    0.661E-02
RMM:  50    -0.649394931319E+02   -0.33155E-03   -0.25179E-03  2293   0.620E-02    0.692E-02
RMM:  51    -0.649397245535E+02   -0.23142E-03   -0.22230E-03  1639   0.376E-02    0.649E-02
RMM:  52    -0.649399345973E+02   -0.21004E-03   -0.17042E-03  1727   0.341E-02    0.503E-02
RMM:  53    -0.649401004910E+02   -0.16589E-03   -0.15619E-03  1494   0.291E-02    0.240E-02
RMM:  54    -0.649402787655E+02   -0.17827E-03   -0.12377E-03  1813   0.270E-02    0.546E-02
RMM:  55    -0.649403745088E+02   -0.95743E-04   -0.11075E-03  1443   0.310E-02    0.264E-02
RMM:  56    -0.649404720800E+02   -0.97571E-04   -0.82429E-04  1406   0.160E-02    0.163E-02
RMM:  57    -0.649405668155E+02   -0.94735E-04   -0.78557E-04  1381   0.170E-02    0.147E-02
RMM:  58    -0.649406399494E+02   -0.73134E-04   -0.56893E-04  1163   0.112E-02    0.218E-02
RMM:  59    -0.649407022239E+02   -0.62274E-04   -0.53499E-04  1150   0.134E-02    0.221E-02
RMM:  60    -0.649407507170E+02   -0.48493E-04   -0.40058E-04  1059   0.945E-03    0.211E-02
RMM:  61    -0.649407932304E+02   -0.42513E-04   -0.36323E-04  1089   0.114E-02    0.173E-02
RMM:  62    -0.649408267099E+02   -0.33480E-04   -0.28398E-04  1176   0.987E-03    0.107E-02
RMM:  63    -0.649408569207E+02   -0.30211E-04   -0.25365E-04  1200   0.115E-02    0.119E-02
RMM:  64    -0.649408810433E+02   -0.24123E-04   -0.20148E-04  1119   0.868E-03    0.136E-02
RMM:  65    -0.649409016380E+02   -0.20595E-04   -0.17452E-04  1059   0.970E-03    0.134E-02
RMM:  66    -0.649409185061E+02   -0.16868E-04   -0.14083E-04   886   0.642E-03    0.135E-02
RMM:  67    -0.649409308914E+02   -0.12385E-04   -0.11072E-04   962   0.786E-03    0.133E-02
RMM:  68    -0.649409412454E+02   -0.10354E-04   -0.87608E-05   935   0.650E-03    0.134E-02
RMM:  69    -0.649409502121E+02   -0.89668E-05   -0.70928E-05  1007   0.700E-03
   2 F= -.68195792E+02 E0= -.68191665E+02  d E =0.101216E+02
       N       E                     dE             d eps       ncg     rms          rms(c)
DAV:   1    -0.686272309524E+02   -0.36863E+01   -0.39316E+02  2032   0.870E+01    0.716E+00
RMM:   2    -0.716886635658E+02   -0.30614E+01   -0.30130E+01  2491   0.311E+01    0.858E+00
RMM:   3    -0.716022560490E+02    0.86408E-01   -0.35893E+00  2630   0.983E+00    0.587E+00
RMM:   4    -0.707886290151E+02    0.81363E+00   -0.11665E+00  2714   0.465E+00    0.301E+00
RMM:   5    -0.707939542143E+02   -0.53252E-02   -0.31675E-01  2801   0.201E+00    0.246E+00
RMM:   6    -0.707460144776E+02    0.47940E-01   -0.15526E-01  2752   0.165E+00    0.225E+00
RMM:   7    -0.707167932328E+02    0.29221E-01   -0.11228E-01  2765   0.117E+00    0.154E+00
RMM:   8    -0.706963672583E+02    0.20426E-01   -0.69739E-02  2693   0.104E+00    0.504E-01
RMM:   9    -0.706976347364E+02   -0.12675E-02   -0.14383E-02  2803   0.523E-01    0.429E-01
RMM:  10    -0.706957475348E+02    0.18872E-02   -0.66481E-03  2641   0.369E-01    0.204E-01
RMM:  11    -0.706955449513E+02    0.20258E-03   -0.61347E-03  2877   0.287E-01    0.517E-02
RMM:  12    -0.706957226033E+02   -0.17765E-03   -0.21796E-03  3063   0.117E-01    0.263E-02
RMM:  13    -0.706958360773E+02   -0.11347E-03   -0.71505E-04  2608   0.800E-02    0.184E-02
RMM:  14    -0.706958931316E+02   -0.57054E-04   -0.25580E-04  2180   0.648E-02    0.173E-02
RMM:  15    -0.706959519118E+02   -0.58780E-04   -0.14229E-04  2102   0.462E-02    0.572E-03
RMM:  16    -0.706960292063E+02   -0.77295E-04   -0.62089E-05  1791   0.352E-02    0.649E-03
RMM:  17    -0.706960696260E+02   -0.40420E-04   -0.20824E-05  1438   0.276E-02    0.404E-03
RMM:  18    -0.706961254098E+02   -0.55784E-04   -0.16380E-05  1359   0.274E-02    0.352E-03
RMM:  19    -0.706961508688E+02   -0.25459E-04   -0.12016E-05  1306   0.252E-02    0.176E-03
RMM:  20    -0.706961709091E+02   -0.20040E-04   -0.10380E-05  1273   0.220E-02    0.273E-03
RMM:  21    -0.706961793827E+02   -0.84736E-05   -0.72493E-06  1235   0.214E-02
   3 F= -.73910516E+02 E0= -.73909578E+02  d E =0.440688E+01
       N       E                     dE             d eps       ncg     rms          rms(c)
DAV:   1    -0.733722769634E+02   -0.26761E+01   -0.17760E+02  2008   0.582E+01    0.379E+00
RMM:   2    -0.740034425826E+02   -0.63117E+00   -0.81426E+00  2464   0.166E+01    0.194E+00
RMM:   3    -0.741348098898E+02   -0.13137E+00   -0.12198E+00  2724   0.543E+00    0.147E+00
RMM:   4    -0.741210405196E+02    0.13769E-01   -0.31339E-01  2772   0.222E+00    0.220E+00
RMM:   5    -0.740780332749E+02    0.43007E-01   -0.68327E-02  2781   0.951E-01    0.983E-01
RMM:   6    -0.740561687081E+02    0.21865E-01   -0.42482E-02  2550   0.112E+00    0.565E-01
RMM:   7    -0.740561657396E+02    0.29684E-05   -0.37917E-02  2757   0.636E-01    0.553E-01
RMM:   8    -0.740527227919E+02    0.34429E-02   -0.85736E-03  2803   0.359E-01    0.226E-01
RMM:   9    -0.740523872170E+02    0.33557E-03   -0.26468E-03  2701   0.248E-01    0.172E-01
RMM:  10    -0.740521245288E+02    0.26269E-03   -0.13194E-03  2822   0.153E-01    0.770E-02
RMM:  11    -0.740521391743E+02   -0.14646E-04   -0.64196E-04  2780   0.860E-02    0.261E-02
RMM:  12    -0.740521795208E+02   -0.40347E-04   -0.17627E-04  2234   0.560E-02    0.155E-02
RMM:  13    -0.740522333212E+02   -0.53800E-04   -0.71697E-05  1885   0.376E-02    0.116E-02
RMM:  14    -0.740522677787E+02   -0.34457E-04   -0.18724E-05  1303   0.349E-02    0.746E-03
RMM:  15    -0.740523433782E+02   -0.75599E-04   -0.25050E-05  1380   0.289E-02    0.618E-03
RMM:  16    -0.740523954421E+02   -0.52064E-04   -0.18165E-05  1306   0.303E-02    0.380E-03
RMM:  17    -0.740524343020E+02   -0.38860E-04   -0.13053E-05  1256   0.306E-02    0.564E-03
RMM:  18    -0.740524595342E+02   -0.25232E-04   -0.10121E-05  1252   0.220E-02    0.181E-03
RMM:  19    -0.740524734486E+02   -0.13914E-04   -0.69167E-06  1221   0.187E-02    0.423E-03
RMM:  20    -0.740524806899E+02   -0.72413E-05   -0.47592E-06  1211   0.175E-02
   4 F= -.77238155E+02 E0= -.77242608E+02  d E =0.107924E+01
       N       E                     dE             d eps       ncg     rms          rms(c)
DAV:   1    -0.760145186467E+02   -0.19620E+01   -0.39565E+02  2008   0.879E+01    0.949E+00
RMM:   2    -0.781466767168E+02   -0.21322E+01   -0.23771E+01  2674   0.249E+01    0.225E+00
RMM:   3    -0.783964017098E+02   -0.24972E+00   -0.25552E+00  2767   0.712E+00    0.304E+00
RMM:   4    -0.783056269022E+02    0.90775E-01   -0.26372E-01  2707   0.226E+00    0.224E+00
RMM:   5    -0.782862335209E+02    0.19393E-01   -0.19043E-01  2663   0.191E+00    0.144E+00
RMM:   6    -0.782375041642E+02    0.48729E-01   -0.11455E-01  2564   0.175E+00    0.505E-01
RMM:   7    -0.782294812458E+02    0.80229E-02   -0.28329E-02  2626   0.846E-01    0.211E-01
RMM:   8    -0.782290807003E+02    0.40055E-03   -0.57937E-03  2812   0.320E-01    0.130E-01
RMM:   9    -0.782287407086E+02    0.33999E-03   -0.22637E-03  2780   0.196E-01    0.490E-02
RMM:  10    -0.782287281610E+02    0.12548E-04   -0.85373E-04  2801   0.111E-01    0.441E-02
RMM:  11    -0.782287258995E+02    0.22615E-05   -0.21951E-04  2328   0.631E-02    0.273E-02
RMM:  12    -0.782288454953E+02   -0.11960E-03   -0.18804E-04  2234   0.601E-02    0.112E-02
RMM:  13    -0.782290529344E+02   -0.20744E-03   -0.59711E-05  1725   0.374E-02    0.946E-03
RMM:  14    -0.782292745333E+02   -0.22160E-03   -0.44487E-05  1548   0.384E-02    0.427E-03
RMM:  15    -0.782293668571E+02   -0.92324E-04   -0.18767E-05  1356   0.283E-02    0.421E-03
RMM:  16    -0.782294509322E+02   -0.84075E-04   -0.12410E-05  1313   0.228E-02    0.256E-03
RMM:  17    -0.782295356018E+02   -0.84670E-04   -0.18495E-05  1373   0.195E-02    0.179E-03
RMM:  18    -0.782295521306E+02   -0.16529E-04   -0.56406E-06  1229   0.184E-02    0.157E-03
RMM:  19    -0.782295652821E+02   -0.13151E-04   -0.39177E-06  1216   0.123E-02    0.635E-04
RMM:  20    -0.782295696001E+02   -0.43180E-05   -0.20401E-06  1191   0.118E-02
   5 F= -.81385653E+02 E0= -.81389606E+02  d E =-.306826E+01
       N       E                     dE             d eps       ncg     rms          rms(c)
DAV:   1    -0.784876204135E+02   -0.25806E+00   -0.11938E+02  2000   0.475E+01    0.828E+00
RMM:   2    -0.792400406961E+02   -0.75242E+00   -0.46436E+00  2743   0.112E+01    0.505E+00
RMM:   3    -0.800099249643E+02   -0.76988E+00   -0.26186E+00  2689   0.790E+00    0.624E+00
RMM:   4    -0.788912869931E+02    0.11186E+01   -0.70180E-01  2502   0.443E+00    0.237E+00
RMM:   5    -0.787629577164E+02    0.12833E+00   -0.23769E-01  2347   0.315E+00    0.100E+00
RMM:   6    -0.787629433671E+02    0.14349E-04   -0.14522E-01  2549   0.156E+00    0.599E-01
RMM:   7    -0.787639125971E+02   -0.96923E-03   -0.21970E-02  2669   0.708E-01    0.253E-01
RMM:   8    -0.787638618956E+02    0.50701E-04   -0.63181E-03  2765   0.322E-01    0.149E-01
RMM:   9    -0.787638122346E+02    0.49661E-04   -0.19818E-03  2746   0.195E-01    0.738E-02
RMM:  10    -0.787638263306E+02   -0.14096E-04   -0.10605E-03  2741   0.135E-01    0.258E-02
RMM:  11    -0.787639137227E+02   -0.87392E-04   -0.36554E-04  2253   0.478E-02    0.221E-02
RMM:  12    -0.787639819495E+02   -0.68227E-04   -0.58490E-05  1721   0.621E-02    0.114E-02
RMM:  13    -0.787640551893E+02   -0.73240E-04   -0.55307E-05  1610   0.311E-02    0.744E-03
RMM:  14    -0.787641007206E+02   -0.45531E-04   -0.12129E-05  1272   0.341E-02    0.458E-03
RMM:  15    -0.787641817653E+02   -0.81045E-04   -0.11053E-05  1289   0.165E-02    0.385E-03
RMM:  16    -0.787642510724E+02   -0.69307E-04   -0.11045E-05  1329   0.187E-02    0.340E-03
RMM:  17    -0.787642750034E+02   -0.23931E-04   -0.71557E-06  1268   0.167E-02    0.212E-03
RMM:  18    -0.787642924053E+02   -0.17402E-04   -0.42907E-06  1231   0.141E-02    0.128E-03
RMM:  19    -0.787642992154E+02   -0.68101E-05   -0.27630E-06  1213   0.119E-02
   6 F= -.81914007E+02 E0= -.81917805E+02  d E =-.359662E+01
       N       E                     dE             d eps       ncg     rms          rms(c)
DAV:   1    -0.788245991198E+02   -0.60307E-01   -0.16467E+01  2080   0.180E+01    0.318E+00
RMM:   2    -0.789551150962E+02   -0.13052E+00   -0.82541E-01  2670   0.514E+00    0.251E+00
RMM:   3    -0.789160687746E+02    0.39046E-01   -0.20870E-01  2571   0.260E+00    0.215E+00
RMM:   4    -0.788592765484E+02    0.56792E-01   -0.71435E-02  2354   0.175E+00    0.940E-01
RMM:   5    -0.788444090216E+02    0.14868E-01   -0.38886E-02  2265   0.144E+00    0.317E-01
RMM:   6    -0.788421951157E+02    0.22139E-02   -0.94997E-03  2570   0.513E-01    0.164E-01
RMM:   7    -0.788424664690E+02   -0.27135E-03   -0.23087E-03  2702   0.184E-01    0.587E-02
RMM:   8    -0.788425916245E+02   -0.12516E-03   -0.55123E-04  2483   0.102E-01    0.217E-02
RMM:   9    -0.788426325228E+02   -0.40898E-04   -0.14980E-04  1912   0.503E-02    0.934E-03
RMM:  10    -0.788426927027E+02   -0.60180E-04   -0.48403E-05  1627   0.291E-02    0.572E-03
RMM:  11    -0.788427274132E+02   -0.34710E-04   -0.13487E-05  1290   0.268E-02    0.439E-03
RMM:  12    -0.788427549442E+02   -0.27531E-04   -0.97848E-06  1245   0.217E-02    0.418E-03
RMM:  13    -0.788427711333E+02   -0.16189E-04   -0.67913E-06  1234   0.199E-02    0.182E-03
RMM:  14    -0.788427985582E+02   -0.27425E-04   -0.12661E-05  1323   0.168E-02    0.365E-03
RMM:  15    -0.788428035717E+02   -0.50135E-05   -0.46658E-06  1226   0.173E-02
   7 F= -.81994485E+02 E0= -.81998206E+02  d E =-.367709E+01
       N       E                     dE             d eps       ncg     rms          rms(c)
DAV:   1    -0.788592468558E+02   -0.16448E-01   -0.11770E+00  2352   0.477E+00    0.816E-01
RMM:   2    -0.788674299684E+02   -0.81831E-02   -0.49284E-02  2711   0.118E+00    0.584E-01
RMM:   3    -0.788670781469E+02    0.35182E-03   -0.16266E-02  2597   0.694E-01    0.546E-01
RMM:   4    -0.788617008961E+02    0.53773E-02   -0.55383E-03  2370   0.460E-01    0.211E-01
RMM:   5    -0.788604418687E+02    0.12590E-02   -0.21639E-03  2246   0.341E-01    0.580E-02
RMM:   6    -0.788604573776E+02   -0.15509E-04   -0.79674E-04  2520   0.117E-01    0.350E-02
RMM:   7    -0.788604618843E+02   -0.45067E-05   -0.12371E-04  1954   0.513E-02    0.144E-02
RMM:   8    -0.788604675250E+02   -0.56407E-05   -0.30389E-05  1499   0.371E-02
   8 F= -.82011585E+02 E0= -.82015313E+02  d E =-.369419E+01
       N       E                     dE             d eps       ncg     rms          rms(c)
DAV:   1    -0.737507528970E+02    0.51097E+01   -0.51855E+02  2000   0.105E+02    0.180E+01
RMM:   2    -0.777772666892E+02   -0.40265E+01   -0.48156E+01  2721   0.354E+01    0.798E+00
RMM:   3    -0.780555412598E+02   -0.27827E+00   -0.48049E+00  2492   0.142E+01    0.628E+00
RMM:   4    -0.771670217415E+02    0.88852E+00   -0.15503E+00  2372   0.844E+00    0.527E+00
RMM:   5    -0.768084969161E+02    0.35852E+00   -0.92995E-01  2544   0.463E+00    0.284E+00
RMM:   6    -0.766916317716E+02    0.11687E+00   -0.42155E-01  2375   0.424E+00    0.614E-01
RMM:   7    -0.766929145523E+02   -0.12828E-02   -0.18004E-01  2746   0.149E+00    0.452E-01
RMM:   8    -0.766903212765E+02    0.25933E-02   -0.27727E-02  2508   0.792E-01    0.271E-01
RMM:   9    -0.766899845906E+02    0.33669E-03   -0.12889E-02  2775   0.398E-01    0.129E-01
RMM:  10    -0.766894085202E+02    0.57607E-03   -0.43245E-03  2645   0.292E-01    0.716E-02
RMM:  11    -0.766896013997E+02   -0.19288E-03   -0.13891E-03  2644   0.115E-01    0.482E-02
RMM:  12    -0.766900287601E+02   -0.42736E-03   -0.67772E-04  2484   0.115E-01    0.231E-02
RMM:  13    -0.766907345764E+02   -0.70582E-03   -0.33558E-04  2388   0.739E-02    0.186E-02
RMM:  14    -0.766913800107E+02   -0.64543E-03   -0.16225E-04  2140   0.542E-02    0.110E-02
RMM:  15    -0.766917212492E+02   -0.34124E-03   -0.69921E-05  1724   0.387E-02    0.708E-03
RMM:  16    -0.766920357111E+02   -0.31446E-03   -0.56508E-05  1575   0.298E-02    0.936E-03
RMM:  17    -0.766921294816E+02   -0.93771E-04   -0.22303E-05  1392   0.276E-02    0.262E-03
RMM:  18    -0.766921816983E+02   -0.52217E-04   -0.14086E-05  1344   0.188E-02    0.264E-03
RMM:  19    -0.766922036787E+02   -0.21980E-04   -0.53054E-06  1250   0.172E-02    0.196E-03
RMM:  20    -0.766922149623E+02   -0.11284E-04   -0.29967E-06  1231   0.108E-02    0.752E-04
RMM:  21    -0.766922185687E+02   -0.36063E-05   -0.13342E-06  1228   0.960E-03
   9 F= -.79866503E+02 E0= -.79862185E+02  d E =0.214508E+01
       N       E                     dE             d eps       ncg     rms          rms(c)
DAV:   1    -0.789507589466E+02   -0.22585E+01   -0.36899E+02  2088   0.765E+01    0.833E+00
RMM:   2    -0.797737145851E+02   -0.82296E+00   -0.14304E+01  2759   0.201E+01    0.542E+00
RMM:   3    -0.809771339105E+02   -0.12034E+01   -0.62372E+00  2695   0.105E+01    0.582E+00
RMM:   4    -0.795687680610E+02    0.14084E+01   -0.94304E-01  2617   0.523E+00    0.277E+00
RMM:   5    -0.794687971289E+02    0.99971E-01   -0.49654E-01  2498   0.387E+00    0.164E+00
RMM:   6    -0.794363242656E+02    0.32473E-01   -0.17091E-01  2696   0.188E+00    0.858E-01
RMM:   7    -0.794294191088E+02    0.69052E-02   -0.44254E-02  2638   0.107E+00    0.227E-01
RMM:   8    -0.794305946372E+02   -0.11755E-02   -0.12021E-02  2866   0.359E-01    0.120E-01
RMM:   9    -0.794314285311E+02   -0.83389E-03   -0.31823E-03  2729   0.255E-01    0.606E-02
RMM:  10    -0.794319092449E+02   -0.48071E-03   -0.92094E-04  2644   0.119E-01    0.370E-02
RMM:  11    -0.794325077863E+02   -0.59854E-03   -0.39189E-04  2394   0.880E-02    0.223E-02
RMM:  12    -0.794331517425E+02   -0.64396E-03   -0.49033E-04  2221   0.810E-02    0.199E-02
RMM:  13    -0.794332661694E+02   -0.11443E-03   -0.13892E-04  1998   0.540E-02    0.109E-02
RMM:  14    -0.794333990835E+02   -0.13291E-03   -0.78738E-05  1786   0.388E-02    0.699E-03
RMM:  15    -0.794334532762E+02   -0.54193E-04   -0.35885E-05  1515   0.300E-02    0.336E-03
RMM:  16    -0.794334731713E+02   -0.19895E-04   -0.12640E-05  1312   0.266E-02    0.265E-03
RMM:  17    -0.794334829567E+02   -0.97854E-05   -0.72896E-06  1247   0.182E-02
  10 F= -.82588221E+02 E0= -.82592288E+02  d E =-.576635E+00
       N       E                     dE             d eps       ncg     rms          rms(c)
DAV:   1    -0.797472132250E+02   -0.31374E+00   -0.80337E+00  2000   0.130E+01    0.148E+00
RMM:   2    -0.798351674716E+02   -0.87954E-01   -0.62097E-01  2724   0.440E+00    0.157E+00
RMM:   3    -0.797700559026E+02    0.65112E-01   -0.67689E-02  2361   0.175E+00    0.716E-01
RMM:   4    -0.797643877803E+02    0.56681E-02   -0.37302E-02  2620   0.993E-01    0.474E-01
RMM:   5    -0.797589165422E+02    0.54712E-02   -0.10410E-02  2455   0.626E-01    0.122E-01
RMM:   6    -0.797589100450E+02    0.64972E-05   -0.36489E-03  2747   0.242E-01    0.539E-02
RMM:   7    -0.797589513725E+02   -0.41328E-04   -0.78225E-04  2492   0.101E-01    0.348E-02
RMM:   8    -0.797589720362E+02   -0.20664E-04   -0.20946E-04  2247   0.640E-02    0.148E-02
RMM:   9    -0.797590027412E+02   -0.30705E-04   -0.81705E-05  1794   0.399E-02    0.676E-03
RMM:  10    -0.797590296736E+02   -0.26932E-04   -0.20210E-05  1403   0.286E-02    0.463E-03
RMM:  11    -0.797590826218E+02   -0.52948E-04   -0.14814E-05  1285   0.234E-02    0.310E-03
RMM:  12    -0.797591359504E+02   -0.53329E-04   -0.12132E-05  1277   0.231E-02    0.263E-03
RMM:  13    -0.797591658303E+02   -0.29880E-04   -0.81397E-06  1249   0.194E-02    0.141E-03
RMM:  14    -0.797591857377E+02   -0.19907E-04   -0.60423E-06  1241   0.161E-02    0.155E-03
RMM:  15    -0.797592047586E+02   -0.19021E-04   -0.58664E-06  1255   0.137E-02    0.985E-04
RMM:  16    -0.797592140822E+02   -0.93236E-05   -0.36168E-06  1225   0.123E-02
  11 F= -.82916638E+02 E0= -.82920454E+02  d E =-.905053E+00
       N       E                     dE             d eps       ncg     rms          rms(c)
DAV:   1    -0.797278726117E+02    0.31332E-01   -0.58852E+01  2000   0.354E+01    0.369E+00
RMM:   2    -0.801216105593E+02   -0.39374E+00   -0.41695E+00  2742   0.118E+01    0.306E+00
RMM:   3    -0.799559529690E+02    0.16566E+00   -0.41314E-01  2352   0.442E+00    0.175E+00
RMM:   4    -0.798980139956E+02    0.57939E-01   -0.18933E-01  2540   0.247E+00    0.109E+00
RMM:   5    -0.798651995921E+02    0.32814E-01   -0.68599E-02  2424   0.159E+00    0.347E-01
RMM:   6    -0.798641954385E+02    0.10042E-02   -0.28718E-02  2714   0.759E-01    0.132E-01
RMM:   7    -0.798642463466E+02   -0.50908E-04   -0.55715E-03  2712   0.262E-01    0.874E-02
RMM:   8    -0.798641314710E+02    0.11488E-03   -0.16223E-03  2693   0.163E-01    0.399E-02
RMM:   9    -0.798641385395E+02   -0.70684E-05   -0.53439E-04  2521   0.891E-02    0.199E-02
RMM:  10    -0.798642328331E+02   -0.94294E-04   -0.19593E-04  2166   0.527E-02    0.120E-02
RMM:  11    -0.798643969589E+02   -0.16413E-03   -0.80237E-05  1859   0.441E-02    0.896E-03
RMM:  12    -0.798645476983E+02   -0.15074E-03   -0.44809E-05  1572   0.342E-02    0.540E-03
RMM:  13    -0.798647120014E+02   -0.16430E-03   -0.35100E-05  1508   0.318E-02    0.347E-03
RMM:  14    -0.798648260296E+02   -0.11403E-03   -0.19402E-05  1364   0.267E-02    0.206E-03
RMM:  15    -0.798648999370E+02   -0.73907E-04   -0.14006E-05  1321   0.195E-02    0.125E-03
RMM:  16    -0.798649435560E+02   -0.43619E-04   -0.11417E-05  1320   0.171E-02    0.103E-03
RMM:  17    -0.798649578300E+02   -0.14274E-04   -0.46163E-06  1221   0.136E-02    0.505E-04
RMM:  18    -0.798649618905E+02   -0.40604E-05   -0.22131E-06  1202   0.100E-02
  12 F= -.83029965E+02 E0= -.83030332E+02  d E =-.101838E+01
       N       E                     dE             d eps       ncg     rms          rms(c)
DAV:   1    -0.799783630050E+02   -0.11341E+00   -0.15850E+01  2000   0.176E+01    0.163E+00
RMM:   2    -0.800508562724E+02   -0.72493E-01   -0.78627E-01  2740   0.527E+00    0.150E+00
RMM:   3    -0.800135752399E+02    0.37281E-01   -0.12752E-01  2447   0.209E+00    0.916E-01
RMM:   4    -0.800043280003E+02    0.92472E-02   -0.59302E-02  2564   0.129E+00    0.539E-01
RMM:   5    -0.799947612509E+02    0.95667E-02   -0.14700E-02  2382   0.845E-01    0.180E-01
RMM:   6    -0.799953739905E+02   -0.61274E-03   -0.68226E-03  2714   0.327E-01    0.103E-01
RMM:   7    -0.799957565771E+02   -0.38259E-03   -0.15524E-03  2647   0.161E-01    0.492E-02
RMM:   8    -0.799959248063E+02   -0.16823E-03   -0.40733E-04  2328   0.112E-01    0.184E-02
RMM:   9    -0.799960643851E+02   -0.13958E-03   -0.19994E-04  2161   0.467E-02    0.106E-02
RMM:  10    -0.799962232549E+02   -0.15887E-03   -0.59059E-05  1737   0.479E-02    0.835E-03
RMM:  11    -0.799962944506E+02   -0.71196E-04   -0.30987E-05  1491   0.289E-02    0.495E-03
RMM:  12    -0.799963726513E+02   -0.78201E-04   -0.20172E-05  1351   0.286E-02    0.347E-03
RMM:  13    -0.799964725647E+02   -0.99913E-04   -0.44300E-05  1561   0.270E-02    0.326E-03
RMM:  14    -0.799964844990E+02   -0.11934E-04   -0.90044E-06  1249   0.270E-02    0.166E-03
RMM:  15    -0.799964938242E+02   -0.93252E-05   -0.63644E-06  1248   0.138E-02
  13 F= -.83157514E+02 E0= -.83160172E+02  d E =-.114593E+01
       N       E                     dE             d eps       ncg     rms          rms(c)
DAV:   1    -0.800064069818E+02   -0.99225E-02   -0.12530E+00  2000   0.506E+00    0.486E-01
RMM:   2    -0.800147902789E+02   -0.83833E-02   -0.82197E-02  2748   0.165E+00    0.462E-01
RMM:   3    -0.800101404417E+02    0.46498E-02   -0.81037E-03  2354   0.599E-01    0.259E-01
RMM:   4    -0.800094616320E+02    0.67881E-03   -0.46823E-03  2572   0.359E-01    0.163E-01
RMM:   5    -0.800086748591E+02    0.78677E-03   -0.15949E-03  2430   0.244E-01    0.458E-02
RMM:   6    -0.800086776582E+02   -0.27991E-05   -0.51048E-04  2420   0.963E-02    0.264E-02
RMM:   7    -0.800086843105E+02   -0.66523E-05   -0.10978E-04  1842   0.495E-02    0.158E-02
RMM:   8    -0.800086917313E+02   -0.74208E-05   -0.34266E-05  1500   0.368E-02
  14 F= -.83170822E+02 E0= -.83172934E+02  d E =-.115924E+01
       N       E                     dE             d eps       ncg     rms          rms(c)
DAV:   1    -0.798403252373E+02    0.16836E+00   -0.12876E+02  2000   0.497E+01    0.394E+00
RMM:   2    -0.803500618765E+02   -0.50974E+00   -0.62300E+00  2662   0.136E+01    0.270E+00
RMM:   3    -0.803542477811E+02   -0.41859E-02   -0.66515E-01  2553   0.472E+00    0.213E+00
RMM:   4    -0.802877674247E+02    0.66480E-01   -0.13237E-01  2441   0.238E+00    0.178E+00
RMM:   5    -0.802746400717E+02    0.13127E-01   -0.60701E-02  2400   0.155E+00    0.107E+00
RMM:   6    -0.802690793597E+02    0.55607E-02   -0.50578E-02  2425   0.135E+00    0.318E-01
RMM:   7    -0.802677641270E+02    0.13152E-02   -0.14123E-02  2643   0.479E-01    0.163E-01
RMM:   8    -0.802673652457E+02    0.39888E-03   -0.44213E-03  2681   0.290E-01    0.642E-02
RMM:   9    -0.802674047440E+02   -0.39498E-04   -0.10125E-03  2683   0.136E-01    0.338E-02
RMM:  10    -0.802674378508E+02   -0.33107E-04   -0.28054E-04  2259   0.638E-02    0.770E-03
RMM:  11    -0.802674501980E+02   -0.12347E-04   -0.61828E-05  1753   0.352E-02    0.416E-03
RMM:  12    -0.802674601600E+02   -0.99619E-05   -0.11681E-05  1311   0.262E-02
  15 F= -.83440570E+02 E0= -.83441252E+02  d E =-.269748E+00
       N       E                     dE             d eps       ncg     rms          rms(c)
DAV:   1    -0.802722764133E+02   -0.48262E-02   -0.67115E+00  2000   0.112E+01    0.627E-01
RMM:   2    -0.802899695550E+02   -0.17693E-01   -0.19887E-01  2629   0.255E+00    0.420E-01
RMM:   3    -0.802912019027E+02   -0.12323E-02   -0.27000E-02  2632   0.916E-01    0.340E-01
RMM:   4    -0.802886921041E+02    0.25098E-02   -0.48217E-03  2470   0.424E-01    0.225E-01
RMM:   5    -0.802882760801E+02    0.41602E-03   -0.21998E-03  2384   0.305E-01    0.121E-01
RMM:   6    -0.802881677939E+02    0.10829E-03   -0.95136E-04  2499   0.173E-01    0.332E-02
RMM:   7    -0.802881708122E+02   -0.30183E-05   -0.25374E-04  2208   0.719E-02    0.196E-02
RMM:   8    -0.802881745973E+02   -0.37851E-05   -0.76527E-05  1800   0.493E-02
  16 F= -.83458555E+02 E0= -.83459652E+02  d E =-.287733E+00
       N       E                     dE             d eps       ncg     rms          rms(c)
DAV:   1    -0.798901910323E+02    0.39798E+00   -0.10250E+02  2000   0.441E+01    0.300E+00
RMM:   2    -0.803130697948E+02   -0.42288E+00   -0.47571E+00  2527   0.127E+01    0.215E+00
RMM:   3    -0.803236538151E+02   -0.10584E-01   -0.62007E-01  2570   0.439E+00    0.150E+00
RMM:   4    -0.802959753900E+02    0.27678E-01   -0.12920E-01  2597   0.201E+00    0.126E+00
RMM:   5    -0.802729417256E+02    0.23034E-01   -0.63980E-02  2408   0.131E+00    0.567E-01
RMM:   6    -0.802693830398E+02    0.35587E-02   -0.30416E-02  2403   0.109E+00    0.205E-01
RMM:   7    -0.802688071796E+02    0.57586E-03   -0.84287E-03  2598   0.360E-01    0.118E-01
RMM:   8    -0.802685037438E+02    0.30344E-03   -0.23845E-03  2702   0.198E-01    0.449E-02
RMM:   9    -0.802685257475E+02   -0.22004E-04   -0.67699E-04  2574   0.102E-01    0.220E-02
RMM:  10    -0.802685734195E+02   -0.47672E-04   -0.18731E-04  2113   0.576E-02    0.120E-02
RMM:  11    -0.802686518886E+02   -0.78469E-04   -0.59892E-05  1729   0.459E-02    0.760E-03
RMM:  12    -0.802687325160E+02   -0.80627E-04   -0.40206E-05  1542   0.292E-02    0.643E-03
RMM:  13    -0.802688422512E+02   -0.10974E-03   -0.21399E-05  1361   0.302E-02    0.329E-03
RMM:  14    -0.802689334405E+02   -0.91189E-04   -0.25910E-05  1439   0.264E-02    0.342E-03
RMM:  15    -0.802689788756E+02   -0.45435E-04   -0.10170E-05  1272   0.235E-02    0.198E-03
RMM:  16    -0.802690023141E+02   -0.23438E-04   -0.78556E-06  1267   0.154E-02    0.131E-03
RMM:  17    -0.802690163707E+02   -0.14057E-04   -0.41475E-06  1236   0.143E-02    0.169E-03
RMM:  18    -0.802690282317E+02   -0.11861E-04   -0.32711E-06  1208   0.103E-02    0.515E-04
RMM:  19    -0.802690301776E+02   -0.19459E-05   -0.16741E-06  1172   0.939E-03
  17 F= -.83448242E+02 E0= -.83444388E+02  d E =0.103125E-01
       N       E                     dE             d eps       ncg     rms          rms(c)
DAV:   1    -0.803263393661E+02   -0.57311E-01   -0.24746E+01  2000   0.202E+01    0.108E+00
RMM:   2    -0.803840763652E+02   -0.57737E-01   -0.71577E-01  2609   0.549E+00    0.830E-01
RMM:   3    -0.803946781926E+02   -0.10602E-01   -0.17626E-01  2563   0.209E+00    0.641E-01
RMM:   4    -0.803887837527E+02    0.58944E-02   -0.32065E-02  2646   0.962E-01    0.434E-01
RMM:   5    -0.803865713347E+02    0.22124E-02   -0.81624E-03  2435   0.549E-01    0.236E-01
RMM:   6    -0.803860925243E+02    0.47881E-03   -0.30152E-03  2491   0.324E-01    0.554E-02
RMM:   7    -0.803862072916E+02   -0.11477E-03   -0.10278E-03  2559   0.115E-01    0.332E-02
RMM:   8    -0.803862709043E+02   -0.63613E-04   -0.30083E-04  2203   0.736E-02    0.168E-02
RMM:   9    -0.803863299862E+02   -0.59082E-04   -0.10241E-04  1847   0.485E-02    0.798E-03
RMM:  10    -0.803863738106E+02   -0.43824E-04   -0.27250E-05  1446   0.303E-02    0.488E-03
RMM:  11    -0.803864380288E+02   -0.64218E-04   -0.16357E-05  1316   0.272E-02    0.329E-03
RMM:  12    -0.803865104603E+02   -0.72432E-04   -0.20807E-05  1379   0.238E-02    0.285E-03
RMM:  13    -0.803865272671E+02   -0.16807E-04   -0.74446E-06  1240   0.221E-02    0.173E-03
RMM:  14    -0.803865513505E+02   -0.24083E-04   -0.98396E-06  1277   0.152E-02    0.163E-03
RMM:  15    -0.803865615294E+02   -0.10179E-04   -0.59446E-06  1253   0.169E-02    0.107E-03
RMM:  16    -0.803865642208E+02   -0.26913E-05   -0.33223E-06  1225   0.120E-02
  18 F= -.83561393E+02 E0= -.83559823E+02  d E =-.102839E+00
       N       E                     dE             d eps       ncg     rms          rms(c)
DAV:   1    -0.802778578269E+02    0.10870E+00   -0.75557E+01  2000   0.363E+01    0.193E+00
RMM:   2    -0.805245115357E+02   -0.24665E+00   -0.27624E+00  2367   0.101E+01    0.138E+00
RMM:   3    -0.805622681651E+02   -0.37757E-01   -0.51582E-01  2620   0.363E+00    0.111E+00
RMM:   4    -0.805540685982E+02    0.81996E-02   -0.81896E-02  2643   0.153E+00    0.104E+00
RMM:   5    -0.805459408470E+02    0.81278E-02   -0.18703E-02  2431   0.776E-01    0.645E-01
RMM:   6    -0.805471993170E+02   -0.12585E-02   -0.29039E-02  2472   0.891E-01    0.330E-01
RMM:   7    -0.805456864484E+02    0.15129E-02   -0.40524E-03  2478   0.295E-01    0.235E-01
RMM:   8    -0.805444775325E+02    0.12089E-02   -0.47340E-03  2545   0.269E-01    0.436E-02
RMM:   9    -0.805445459162E+02   -0.68384E-04   -0.49183E-04  2510   0.106E-01    0.221E-02
RMM:  10    -0.805445580788E+02   -0.12163E-04   -0.11579E-04  1934   0.475E-02    0.759E-03
RMM:  11    -0.805445643370E+02   -0.62582E-05   -0.29611E-05  1463   0.379E-02
  19 F= -.83723210E+02 E0= -.83719643E+02  d E =-.161817E+00
       N       E                     dE             d eps       ncg     rms          rms(c)
DAV:   1    -0.804682661741E+02    0.76292E-01   -0.32866E+01  2000   0.234E+01    0.114E+00
RMM:   2    -0.805645779668E+02   -0.96312E-01   -0.10645E+00  2358   0.636E+00    0.840E-01
RMM:   3    -0.805786573515E+02   -0.14079E-01   -0.19284E-01  2625   0.222E+00    0.669E-01
RMM:   4    -0.805759473914E+02    0.27100E-02   -0.28660E-02  2657   0.914E-01    0.609E-01
RMM:   5    -0.805731946065E+02    0.27528E-02   -0.65860E-03  2403   0.468E-01    0.371E-01
RMM:   6    -0.805735100592E+02   -0.31545E-03   -0.91579E-03  2401   0.531E-01    0.171E-01
RMM:   7    -0.805731824693E+02    0.32759E-03   -0.14817E-03  2500   0.182E-01    0.125E-01
RMM:   8    -0.805728434077E+02    0.33906E-03   -0.11829E-03  2461   0.151E-01    0.293E-02
RMM:   9    -0.805728649944E+02   -0.21587E-04   -0.19644E-04  2198   0.701E-02    0.110E-02
RMM:  10    -0.805728707295E+02   -0.57351E-05   -0.33541E-05  1524   0.348E-02
  20 F= -.83754564E+02 E0= -.83749776E+02  d E =-.193171E+00
       N       E                     dE             d eps       ncg     rms          rms(c)
DAV:   1    -0.802942479793E+02    0.27862E+00   -0.66864E+01  2000   0.331E+01    0.184E+00
RMM:   2    -0.805055264059E+02   -0.21128E+00   -0.22895E+00  2570   0.900E+00    0.138E+00
RMM:   3    -0.805139633731E+02   -0.84370E-02   -0.31593E-01  2564   0.291E+00    0.101E+00
RMM:   4    -0.805021217909E+02    0.11842E-01   -0.54309E-02  2581   0.123E+00    0.805E-01
RMM:   5    -0.804937787322E+02    0.83431E-02   -0.34762E-02  2424   0.940E-01    0.312E-01
RMM:   6    -0.804928212321E+02    0.95750E-03   -0.11747E-02  2359   0.686E-01    0.151E-01
RMM:   7    -0.804924040052E+02    0.41723E-03   -0.34241E-03  2619   0.232E-01    0.816E-02
RMM:   8    -0.804922218918E+02    0.18211E-03   -0.13489E-03  2579   0.138E-01    0.232E-02
RMM:   9    -0.804922497781E+02   -0.27886E-04   -0.29170E-04  2273   0.714E-02    0.132E-02
RMM:  10    -0.804922820977E+02   -0.32320E-04   -0.66186E-05  1681   0.441E-02    0.735E-03
RMM:  11    -0.804923228680E+02   -0.40770E-04   -0.32409E-05  1487   0.328E-02    0.594E-03
RMM:  12    -0.804923547129E+02   -0.31845E-04   -0.16632E-05  1308   0.285E-02    0.457E-03
RMM:  13    -0.804924043665E+02   -0.49654E-04   -0.13512E-05  1285   0.243E-02    0.486E-03
RMM:  14    -0.804924528125E+02   -0.48446E-04   -0.11811E-05  1284   0.233E-02    0.271E-03
RMM:  15    -0.804924763189E+02   -0.23506E-04   -0.72368E-06  1254   0.184E-02    0.230E-03
RMM:  16    -0.804924962565E+02   -0.19938E-04   -0.60291E-06  1244   0.138E-02    0.190E-03
RMM:  17    -0.804925051381E+02   -0.88816E-05   -0.33325E-06  1225   0.134E-02
  21 F= -.83675342E+02 E0= -.83668193E+02  d E =0.792220E-01
       N       E                     dE             d eps       ncg     rms          rms(c)
DAV:   1    -0.805248746247E+02   -0.32378E-01   -0.28612E+01  2000   0.207E+01    0.104E+00
RMM:   2    -0.805903009525E+02   -0.65426E-01   -0.77741E-01  2648   0.543E+00    0.750E-01
RMM:   3    -0.806057145002E+02   -0.15414E-01   -0.19259E-01  2488   0.205E+00    0.623E-01
RMM:   4    -0.806003194452E+02    0.53951E-02   -0.28431E-02  2609   0.896E-01    0.461E-01
RMM:   5    -0.805991888309E+02    0.11306E-02   -0.86281E-03  2515   0.510E-01    0.280E-01
RMM:   6    -0.805985047358E+02    0.68410E-03   -0.45055E-03  2312   0.430E-01    0.789E-02
RMM:   7    -0.805985168140E+02   -0.12078E-04   -0.14853E-03  2522   0.132E-01    0.527E-02
RMM:   8    -0.805984880944E+02    0.28720E-04   -0.56372E-04  2346   0.117E-01    0.217E-02
RMM:   9    -0.805985234546E+02   -0.35360E-04   -0.16401E-04  2021   0.676E-02    0.110E-02
RMM:  10    -0.805985578763E+02   -0.34422E-04   -0.45395E-05  1674   0.350E-02    0.608E-03
RMM:  11    -0.805985878761E+02   -0.30000E-04   -0.12588E-05  1278   0.274E-02    0.416E-03
RMM:  12    -0.805986385737E+02   -0.50698E-04   -0.11087E-05  1269   0.201E-02    0.390E-03
RMM:  13    -0.805986690953E+02   -0.30522E-04   -0.90473E-06  1260   0.197E-02    0.242E-03
RMM:  14    -0.805986895226E+02   -0.20427E-04   -0.77502E-06  1244   0.197E-02    0.326E-03
RMM:  15    -0.805987025505E+02   -0.13028E-04   -0.87742E-06  1277   0.169E-02    0.227E-03
RMM:  16    -0.805987070283E+02   -0.44778E-05   -0.47648E-06  1228   0.156E-02
  22 F= -.83780804E+02 E0= -.83775085E+02  d E =-.262392E-01
       N       E                     dE             d eps       ncg     rms          rms(c)
DAV:   1    -0.805750942510E+02    0.23608E-01   -0.27917E+01  2000   0.210E+01    0.957E-01
RMM:   2    -0.806503066036E+02   -0.75212E-01   -0.82734E-01  2386   0.560E+00    0.702E-01
RMM:   3    -0.806615132478E+02   -0.11207E-01   -0.14409E-01  2659   0.189E+00    0.570E-01
RMM:   4    -0.806600646001E+02    0.14486E-02   -0.24334E-02  2711   0.759E-01    0.508E-01
RMM:   5    -0.806578210196E+02    0.22436E-02   -0.52283E-03  2364   0.411E-01    0.268E-01
RMM:   6    -0.806582648499E+02   -0.44383E-03   -0.53988E-03  2487   0.394E-01    0.139E-01
RMM:   7    -0.806579828434E+02    0.28201E-03   -0.84782E-04  2361   0.148E-01    0.977E-02
RMM:   8    -0.806577928506E+02    0.18999E-03   -0.95320E-04  2481   0.128E-01    0.205E-02
RMM:   9    -0.806578066156E+02   -0.13765E-04   -0.93938E-05  1866   0.557E-02    0.127E-02
RMM:  10    -0.806578151432E+02   -0.85275E-05   -0.48843E-05  1646   0.415E-02
  23 F= -.83836880E+02 E0= -.83830846E+02  d E =-.560767E-01
       N       E                     dE             d eps       ncg     rms          rms(c)
DAV:   1    -0.806444379837E+02    0.13369E-01   -0.97397E+00  2000   0.123E+01    0.523E-01
RMM:   2    -0.806687597956E+02   -0.24322E-01   -0.26449E-01  2489   0.309E+00    0.392E-01
RMM:   3    -0.806718562468E+02   -0.30965E-02   -0.43232E-02  2608   0.103E+00    0.319E-01
RMM:   4    -0.806712323045E+02    0.62394E-03   -0.65507E-03  2658   0.416E-01    0.271E-01
RMM:   5    -0.806708079725E+02    0.42433E-03   -0.20591E-03  2445   0.248E-01    0.135E-01
RMM:   6    -0.806708297953E+02   -0.21823E-04   -0.13889E-03  2341   0.232E-01    0.643E-02
RMM:   7    -0.806707963994E+02    0.33396E-04   -0.32709E-04  2290   0.764E-02    0.450E-02
RMM:   8    -0.806707671188E+02    0.29281E-04   -0.16967E-04  1979   0.675E-02    0.142E-02
RMM:   9    -0.806707730671E+02   -0.59483E-05   -0.40811E-05  1588   0.425E-02
  24 F= -.83848075E+02 E0= -.83841912E+02  d E =-.672716E-01
       N       E                     dE             d eps       ncg     rms          rms(c)
DAV:   1    -0.806725127647E+02   -0.17456E-02   -0.12338E+01  2000   0.138E+01    0.616E-01
RMM:   2    -0.807011900043E+02   -0.28677E-01   -0.31854E-01  2672   0.330E+00    0.456E-01
RMM:   3    -0.807032228319E+02   -0.20328E-02   -0.38926E-02  2539   0.101E+00    0.349E-01
RMM:   4    -0.807020732320E+02    0.11496E-02   -0.90285E-03  2671   0.485E-01    0.252E-01
RMM:   5    -0.807012361984E+02    0.83703E-03   -0.40497E-03  2478   0.331E-01    0.861E-02
RMM:   6    -0.807010801638E+02    0.15603E-03   -0.78447E-04  2283   0.208E-01    0.393E-02
RMM:   7    -0.807010660900E+02    0.14074E-04   -0.34538E-04  2368   0.747E-02    0.213E-02
RMM:   8    -0.807010617359E+02    0.43542E-05   -0.94638E-05  1867   0.534E-02
  25 F= -.83873918E+02 E0= -.83867476E+02  d E =-.258426E-01
       N       E                     dE             d eps       ncg     rms          rms(c)
DAV:   1    -0.807005686112E+02    0.49748E-03   -0.23485E-01  2336   0.189E+00    0.822E-02
RMM:   2    -0.807010635162E+02   -0.49491E-03   -0.55579E-03  2649   0.459E-01    0.582E-02
RMM:   3    -0.807011661692E+02   -0.10265E-03   -0.97450E-04  2282   0.149E-01    0.467E-02
RMM:   4    -0.807011382599E+02    0.27909E-04   -0.18389E-04  2019   0.806E-02    0.312E-02
RMM:   5    -0.807011424961E+02   -0.42362E-05   -0.47884E-05  1623   0.481E-02
  26 F= -.83874618E+02 E0= -.83868210E+02  d E =-.265430E-01
       N       E                     dE             d eps       ncg     rms          rms(c)
DAV:   1    -0.807139613534E+02   -0.12823E-01   -0.75788E-01  2000   0.339E+00    0.140E-01
RMM:   2    -0.807155445489E+02   -0.15832E-02   -0.17750E-02  2453   0.859E-01    0.941E-02
RMM:   3    -0.807158965189E+02   -0.35197E-03   -0.41203E-03  2599   0.277E-01    0.697E-02
RMM:   4    -0.807159446406E+02   -0.48122E-04   -0.55495E-04  2412   0.125E-01    0.449E-02
RMM:   5    -0.807159467912E+02   -0.21506E-05   -0.15856E-04  2049   0.732E-02    0.274E-02
RMM:   6    -0.807159212417E+02    0.25550E-04   -0.39831E-05  1608   0.587E-02    0.838E-03
RMM:   7    -0.807159235830E+02   -0.23414E-05   -0.18199E-05  1373   0.253E-02
  27 F= -.83888065E+02 E0= -.83881731E+02  d E =-.134467E-01
       N       E                     dE             d eps       ncg     rms          rms(c)
DAV:   1    -0.807355919939E+02   -0.19671E-01   -0.67779E+00  2000   0.101E+01    0.436E-01
RMM:   2    -0.807498519428E+02   -0.14260E-01   -0.15944E-01  2485   0.255E+00    0.286E-01
RMM:   3    -0.807539926098E+02   -0.41407E-02   -0.46183E-02  2696   0.872E-01    0.220E-01
RMM:   4    -0.807545935743E+02   -0.60096E-03   -0.56015E-03  2707   0.358E-01    0.187E-01
RMM:   5    -0.807540100841E+02    0.58349E-03   -0.13374E-03  2467   0.199E-01    0.933E-02
RMM:   6    -0.807539844360E+02    0.25648E-04   -0.52923E-04  2275   0.141E-01    0.400E-02
RMM:   7    -0.807539697352E+02    0.14701E-04   -0.14505E-04  2060   0.536E-02    0.239E-02
RMM:   8    -0.807539646695E+02    0.50657E-05   -0.59821E-05  1686   0.423E-02
  28 F= -.83922107E+02 E0= -.83915994E+02  d E =-.474883E-01
       N       E                     dE             d eps       ncg     rms          rms(c)
DAV:   1    -0.807184878862E+02    0.35482E-01   -0.26852E+01  2000   0.200E+01    0.939E-01
RMM:   2    -0.807947136151E+02   -0.76226E-01   -0.83069E-01  2525   0.531E+00    0.606E-01
RMM:   3    -0.808043398346E+02   -0.96262E-02   -0.11796E-01  2685   0.160E+00    0.482E-01
RMM:   4    -0.808058414719E+02   -0.15016E-02   -0.24531E-02  2739   0.735E-01    0.449E-01
RMM:   5    -0.808028540490E+02    0.29874E-02   -0.55052E-03  2490   0.390E-01    0.199E-01
RMM:   6    -0.808030993831E+02   -0.24533E-03   -0.28479E-03  2386   0.301E-01    0.103E-01
RMM:   7    -0.808029346925E+02    0.16469E-03   -0.61366E-04  2459   0.108E-01    0.634E-02
RMM:   8    -0.808028729979E+02    0.61695E-04   -0.49285E-04  2369   0.890E-02    0.190E-02
RMM:   9    -0.808028825461E+02   -0.95482E-05   -0.80826E-05  1780   0.476E-02
  29 F= -.83963043E+02 E0= -.83957424E+02  d E =-.884243E-01
       N       E                     dE             d eps       ncg     rms          rms(c)
DAV:   1    -0.803941550089E+02    0.40872E+00   -0.10491E+02  2000   0.392E+01    0.227E+00
RMM:   2    -0.807901159618E+02   -0.39596E+00   -0.42428E+00  2621   0.108E+01    0.132E+00
RMM:   3    -0.808251490391E+02   -0.35033E-01   -0.46803E-01  2611   0.333E+00    0.115E+00
RMM:   4    -0.808125567195E+02    0.12592E-01   -0.89896E-02  2657   0.154E+00    0.108E+00
RMM:   5    -0.808022799610E+02    0.10277E-01   -0.30070E-02  2604   0.832E-01    0.648E-01
RMM:   6    -0.808032801719E+02   -0.10002E-02   -0.31841E-02  2378   0.894E-01    0.332E-01
RMM:   7    -0.808011254530E+02    0.21547E-02   -0.42163E-03  2392   0.346E-01    0.199E-01
RMM:   8    -0.808003678032E+02    0.75765E-03   -0.46832E-03  2617   0.263E-01    0.481E-02
RMM:   9    -0.808004186302E+02   -0.50827E-04   -0.61758E-04  2523   0.116E-01    0.247E-02
RMM:  10    -0.808004419647E+02   -0.23335E-04   -0.14757E-04  2045   0.586E-02    0.138E-02
RMM:  11    -0.808004583537E+02   -0.16389E-04   -0.76905E-05  1759   0.428E-02    0.661E-03
RMM:  12    -0.808004635389E+02   -0.51851E-05   -0.13714E-05  1296   0.292E-02
  30 F= -.83944774E+02 E0= -.83940102E+02  d E =-.701560E-01
       N       E                     dE             d eps       ncg     rms          rms(c)
DAV:   1    -0.806983405431E+02    0.10212E+00   -0.44542E+01  2000   0.252E+01    0.109E+00
RMM:   2    -0.808014401716E+02   -0.10310E+00   -0.10986E+00  2640   0.607E+00    0.657E-01
RMM:   3    -0.808173387352E+02   -0.15899E-01   -0.19067E-01  2687   0.180E+00    0.499E-01
RMM:   4    -0.808172131466E+02    0.12559E-03   -0.24053E-02  2635   0.776E-01    0.269E-01
RMM:   5    -0.808178639146E+02   -0.65077E-03   -0.79111E-03  2451   0.504E-01    0.139E-01
RMM:   6    -0.808169757638E+02    0.88815E-03   -0.22105E-03  2540   0.263E-01    0.807E-02
RMM:   7    -0.808167799716E+02    0.19579E-03   -0.56567E-04  2491   0.109E-01    0.463E-02
RMM:   8    -0.808167554252E+02    0.24546E-04   -0.34058E-04  2342   0.881E-02    0.177E-02
RMM:   9    -0.808167608734E+02   -0.54482E-05   -0.82269E-05  1775   0.502E-02
  31 F= -.83971236E+02 E0= -.83965963E+02  d E =-.966179E-01
       N       E                     dE             d eps       ncg     rms          rms(c)
DAV:   1    -0.808232133982E+02   -0.64580E-02   -0.94416E-03  2560   0.387E-01    0.405E-02
RMM:   2    -0.808232659190E+02   -0.52521E-04   -0.75728E-04  2410   0.203E-01    0.369E-02
RMM:   3    -0.808232630989E+02    0.28202E-05   -0.22716E-04  2255   0.641E-02    0.221E-02
RMM:   4    -0.808232584382E+02    0.46607E-05   -0.33953E-05  1508   0.419E-02
  32 F= -.83977497E+02 E0= -.83972233E+02  d E =-.626075E-02
       N       E                     dE             d eps       ncg     rms          rms(c)
DAV:   1    -0.808402675437E+02   -0.17004E-01   -0.85063E-02  2144   0.116E+00    0.122E-01
RMM:   2    -0.808407631674E+02   -0.49562E-03   -0.68176E-03  2511   0.552E-01    0.104E-01
RMM:   3    -0.808406864569E+02    0.76710E-04   -0.16269E-03  2583   0.187E-01    0.627E-02
RMM:   4    -0.808406382368E+02    0.48220E-04   -0.28946E-04  2340   0.854E-02    0.424E-02
RMM:   5    -0.808406229854E+02    0.15251E-04   -0.90200E-05  1841   0.579E-02    0.240E-02
RMM:   6    -0.808406160160E+02    0.69694E-05   -0.36551E-05  1525   0.447E-02
  33 F= -.83994166E+02 E0= -.83988909E+02  d E =-.229300E-01
       N       E                     dE             d eps       ncg     rms          rms(c)
DAV:   1    -0.808642868598E+02   -0.23664E-01   -0.33895E-01  2016   0.232E+00    0.242E-01
RMM:   2    -0.808661871171E+02   -0.19003E-02   -0.27058E-02  2496   0.111E+00    0.204E-01
RMM:   3    -0.808659306151E+02    0.25650E-03   -0.68155E-03  2627   0.375E-01    0.120E-01
RMM:   4    -0.808657555080E+02    0.17511E-03   -0.12040E-03  2644   0.163E-01    0.820E-02
RMM:   5    -0.808656783574E+02    0.77151E-04   -0.35339E-04  2274   0.102E-01    0.489E-02
RMM:   6    -0.808656515497E+02    0.26808E-04   -0.15194E-04  2121   0.797E-02    0.125E-02
RMM:   7    -0.808656563233E+02   -0.47735E-05   -0.67389E-05  1770   0.391E-02
  34 F= -.84017930E+02 E0= -.84012709E+02  d E =-.466936E-01
       N       E                     dE             d eps       ncg     rms          rms(c)
DAV:   1    -0.808703065967E+02   -0.46550E-02   -0.13596E+00  2000   0.465E+00    0.494E-01
RMM:   2    -0.808780482734E+02   -0.77417E-02   -0.11094E-01  2533   0.217E+00    0.396E-01
RMM:   3    -0.808771357840E+02    0.91249E-03   -0.25449E-02  2632   0.742E-01    0.237E-01
RMM:   4    -0.808763248020E+02    0.81098E-03   -0.46881E-03  2669   0.321E-01    0.161E-01
RMM:   5    -0.808760114440E+02    0.31336E-03   -0.14147E-03  2461   0.198E-01    0.973E-02
RMM:   6    -0.808758983843E+02    0.11306E-03   -0.56943E-04  2409   0.151E-01    0.226E-02
RMM:   7    -0.808759182497E+02   -0.19865E-04   -0.26842E-04  2049   0.564E-02    0.123E-02
RMM:   8    -0.808759209955E+02   -0.27459E-05   -0.50308E-05  1570   0.351E-02
  35 F= -.84026044E+02 E0= -.84020909E+02  d E =-.548077E-01
       N       E                     dE             d eps       ncg     rms          rms(c)
DAV:   1    -0.808778643557E+02   -0.19461E-02   -0.17132E-01  2016   0.165E+00    0.175E-01
RMM:   2    -0.808787477575E+02   -0.88340E-03   -0.13377E-02  2451   0.810E-01    0.151E-01
RMM:   3    -0.808786196451E+02    0.12811E-03   -0.37801E-03  2641   0.272E-01    0.879E-02
RMM:   4    -0.808785462510E+02    0.73394E-04   -0.63263E-04  2455   0.120E-01    0.608E-02
RMM:   5    -0.808784918398E+02    0.54411E-04   -0.14998E-04  2023   0.827E-02    0.321E-02
RMM:   6    -0.808784830584E+02    0.87814E-05   -0.93194E-05  1925   0.555E-02
  36 F= -.84029308E+02 E0= -.84024145E+02  d E =-.580713E-01
       N       E                     dE             d eps       ncg     rms          rms(c)
DAV:   1    -0.808839397778E+02   -0.54479E-02   -0.63962E-02  2336   0.102E+00    0.848E-02
RMM:   2    -0.808841266413E+02   -0.18686E-03   -0.30308E-03  2691   0.324E-01    0.580E-02
RMM:   3    -0.808841248736E+02    0.17677E-05   -0.52206E-04  2420   0.104E-01    0.374E-02
RMM:   4    -0.808841334493E+02   -0.85758E-05   -0.14928E-04  2144   0.693E-02    0.305E-02
RMM:   5    -0.808841018359E+02    0.31613E-04   -0.30495E-05  1503   0.417E-02    0.166E-02
RMM:   6    -0.808840978217E+02    0.40142E-05   -0.13052E-05  1262   0.328E-02
  37 F= -.84034634E+02 E0= -.84029412E+02  d E =-.532674E-02
       N       E                     dE             d eps       ncg     rms          rms(c)
DAV:   1    -0.808870680471E+02   -0.29662E-02   -0.14471E-01  2000   0.152E+00    0.132E-01
RMM:   2    -0.808873981802E+02   -0.33013E-03   -0.62692E-03  2526   0.530E-01    0.918E-02
RMM:   3    -0.808874689822E+02   -0.70802E-04   -0.16926E-03  2604   0.181E-01    0.607E-02
RMM:   4    -0.808874537174E+02    0.15265E-04   -0.43716E-04  2486   0.106E-01    0.474E-02
RMM:   5    -0.808873838238E+02    0.69894E-04   -0.82086E-05  1782   0.580E-02    0.262E-02
RMM:   6    -0.808873757866E+02    0.80372E-05   -0.30876E-05  1490   0.509E-02
  38 F= -.84037487E+02 E0= -.84032183E+02  d E =-.817912E-02
       N       E                     dE             d eps       ncg     rms          rms(c)
DAV:   1    -0.808873662968E+02    0.17527E-04   -0.26175E-04  2824   0.753E-02    0.648E-03
RMM:   2    -0.808873703103E+02   -0.40135E-05   -0.11833E-05  1240   0.239E-02
  39 F= -.84037497E+02 E0= -.84032196E+02  d E =-.818947E-02
       N       E                     dE             d eps       ncg     rms          rms(c)
DAV:   1    -0.808880894746E+02   -0.72318E-03   -0.64096E-04  2384   0.106E-01    0.747E-03
RMM:   2    -0.808880942526E+02   -0.47779E-05   -0.25695E-05  1266   0.363E-02
  40 F= -.84038049E+02 E0= -.84032746E+02  d E =-.551915E-03
       N       E                     dE             d eps       ncg     rms          rms(c)
DAV:   1    -0.808902144208E+02   -0.21249E-02   -0.58307E-03  2000   0.310E-01    0.204E-02
RMM:   2    -0.808902349562E+02   -0.20535E-04   -0.24611E-04  2490   0.106E-01    0.117E-02
RMM:   3    -0.808902433399E+02   -0.83837E-05   -0.49898E-05  1511   0.368E-02
  41 F= -.84039683E+02 E0= -.84034354E+02  d E =-.218551E-02
       N       E                     dE             d eps       ncg     rms          rms(c)
DAV:   1    -0.808943493495E+02   -0.41144E-02   -0.22837E-02  2000   0.608E-01    0.397E-02
RMM:   2    -0.808944031678E+02   -0.53818E-04   -0.80030E-04  2285   0.228E-01    0.258E-02
RMM:   3    -0.808944315086E+02   -0.28341E-04   -0.31407E-04  2389   0.834E-02    0.181E-02
RMM:   4    -0.808944288836E+02    0.26250E-05   -0.41656E-05  1567   0.469E-02
  42 F= -.84042840E+02 E0= -.84037513E+02  d E =-.534265E-02
       N       E                     dE             d eps       ncg     rms          rms(c)
DAV:   1    -0.809021372267E+02   -0.77057E-02   -0.90681E-02  2000   0.121E+00    0.722E-02
RMM:   2    -0.809023670240E+02   -0.22980E-03   -0.31011E-03  2343   0.428E-01    0.473E-02
RMM:   3    -0.809024627250E+02   -0.95701E-04   -0.10530E-03  2601   0.146E-01    0.362E-02
RMM:   4    -0.809024368746E+02    0.25850E-04   -0.15782E-04  2142   0.655E-02    0.247E-02
RMM:   5    -0.809024293133E+02    0.75613E-05   -0.40524E-05  1579   0.426E-02
  43 F= -.84048793E+02 E0= -.84043396E+02  d E =-.112965E-01
       N       E                     dE             d eps       ncg     rms          rms(c)
DAV:   1    -0.809158023784E+02   -0.13366E-01   -0.36066E-01  2000   0.241E+00    0.143E-01
RMM:   2    -0.809167203245E+02   -0.91795E-03   -0.12311E-02  2343   0.842E-01    0.882E-02
RMM:   3    -0.809170965155E+02   -0.37619E-03   -0.41035E-03  2704   0.290E-01    0.644E-02
RMM:   4    -0.809170259398E+02    0.70576E-04   -0.59822E-04  2538   0.111E-01    0.469E-02
RMM:   5    -0.809169887343E+02    0.37205E-04   -0.16102E-04  2097   0.696E-02    0.281E-02
RMM:   6    -0.809169845806E+02    0.41538E-05   -0.56222E-05  1727   0.544E-02
  44 F= -.84059296E+02 E0= -.84053824E+02  d E =-.217993E-01
       N       E                     dE             d eps       ncg     rms          rms(c)
DAV:   1    -0.809355024886E+02   -0.18514E-01   -0.14437E+00  2000   0.483E+00    0.284E-01
RMM:   2    -0.809393289330E+02   -0.38264E-02   -0.50222E-02  2343   0.171E+00    0.179E-01
RMM:   3    -0.809407604105E+02   -0.14315E-02   -0.16482E-02  2704   0.581E-01    0.125E-01
RMM:   4    -0.809406204837E+02    0.13993E-03   -0.23829E-03  2736   0.215E-01    0.958E-02
RMM:   5    -0.809404439681E+02    0.17652E-03   -0.66748E-04  2470   0.129E-01    0.591E-02
RMM:   6    -0.809404114603E+02    0.32508E-04   -0.25439E-04  2301   0.107E-01    0.202E-02
RMM:   7    -0.809404181789E+02   -0.67185E-05   -0.10382E-04  1848   0.479E-02    0.759E-03
RMM:   8    -0.809404212202E+02   -0.30413E-05   -0.22901E-05  1426   0.291E-02
  45 F= -.84074790E+02 E0= -.84069149E+02  d E =-.372925E-01
       N       E                     dE             d eps       ncg     rms          rms(c)
DAV:   1    -0.809441299498E+02   -0.37118E-02   -0.57595E+00  2000   0.969E+00    0.583E-01
RMM:   2    -0.809603777497E+02   -0.16248E-01   -0.20821E-01  2376   0.337E+00    0.340E-01
RMM:   3    -0.809659469936E+02   -0.55692E-02   -0.65198E-02  2686   0.113E+00    0.233E-01
RMM:   4    -0.809660209997E+02   -0.74006E-04   -0.92261E-03  2726   0.424E-01    0.188E-01
RMM:   5    -0.809653678254E+02    0.65317E-03   -0.27462E-03  2642   0.253E-01    0.119E-01
RMM:   6    -0.809651702687E+02    0.19756E-03   -0.11093E-03  2444   0.203E-01    0.451E-02
RMM:   7    -0.809651751652E+02   -0.48965E-05   -0.40663E-04  2324   0.931E-02    0.185E-02
RMM:   8    -0.809651783041E+02   -0.31389E-05   -0.12616E-04  1912   0.562E-02    0.937E-03
RMM:   9    -0.809651864736E+02   -0.81695E-05   -0.34317E-05  1526   0.331E-02
  46 F= -.84084291E+02 E0= -.84078474E+02  d E =-.467939E-01
       N       E                     dE             d eps       ncg     rms          rms(c)
DAV:   1    -0.809531042447E+02    0.12074E-01   -0.35580E+00  2000   0.751E+00    0.424E-01
RMM:   2    -0.809623510087E+02   -0.92468E-02   -0.12014E-01  2463   0.224E+00    0.318E-01
RMM:   3    -0.809639753232E+02   -0.16243E-02   -0.23138E-02  2679   0.761E-01    0.266E-01
RMM:   4    -0.809631623616E+02    0.81296E-03   -0.38857E-03  2689   0.319E-01    0.220E-01
RMM:   5    -0.809628354778E+02    0.32688E-03   -0.10946E-03  2450   0.187E-01    0.148E-01
RMM:   6    -0.809626419440E+02    0.19353E-03   -0.10142E-03  2320   0.206E-01    0.405E-02
RMM:   7    -0.809626548516E+02   -0.12908E-04   -0.26880E-04  2314   0.874E-02    0.220E-02
RMM:   8    -0.809626843178E+02   -0.29466E-04   -0.69626E-05  1744   0.549E-02    0.127E-02
RMM:   9    -0.809627019869E+02   -0.17669E-04   -0.21540E-05  1385   0.384E-02    0.563E-03
RMM:  10    -0.809627208344E+02   -0.18847E-04   -0.12478E-05  1282   0.245E-02    0.283E-03
RMM:  11    -0.809627288915E+02   -0.80571E-05   -0.50943E-06  1231   0.197E-02
  47 F= -.84075692E+02 E0= -.84070231E+02  d E =0.859878E-02
       N       E                     dE             d eps       ncg     rms          rms(c)
DAV:   1    -0.809637966487E+02   -0.10758E-02   -0.18241E+00  2000   0.545E+00    0.293E-01
RMM:   2    -0.809686270076E+02   -0.48304E-02   -0.59754E-02  2479   0.159E+00    0.225E-01
RMM:   3    -0.809693292919E+02   -0.70228E-03   -0.11041E-02  2682   0.537E-01    0.185E-01
RMM:   4    -0.809688620912E+02    0.46720E-03   -0.17560E-03  2659   0.221E-01    0.141E-01
RMM:   5    -0.809687165759E+02    0.14552E-03   -0.64428E-04  2373   0.144E-01    0.833E-02
RMM:   6    -0.809686390177E+02    0.77558E-04   -0.32694E-04  2192   0.122E-01    0.233E-02
RMM:   7    -0.809686436248E+02   -0.46071E-05   -0.10527E-04  1942   0.499E-02    0.129E-02
RMM:   8    -0.809686450808E+02   -0.14561E-05   -0.18264E-05  1348   0.372E-02
  48 F= -.84085996E+02 E0= -.84080275E+02  d E =-.170538E-02
       N       E                     dE             d eps       ncg     rms          rms(c)
DAV:   1    -0.809714145744E+02   -0.27709E-02   -0.85646E-02  2208   0.116E+00    0.512E-02
RMM:   2    -0.809716142497E+02   -0.19968E-03   -0.23135E-03  2341   0.337E-01    0.346E-02
RMM:   3    -0.809716597846E+02   -0.45535E-04   -0.54294E-04  2405   0.111E-01    0.268E-02
RMM:   4    -0.809716588242E+02    0.96044E-06   -0.59663E-05  1620   0.558E-02
  49 F= -.84088011E+02 E0= -.84082324E+02  d E =-.201466E-02
       N       E                     dE             d eps       ncg     rms          rms(c)
DAV:   1    -0.809774467969E+02   -0.57870E-02   -0.77307E-01  2000   0.349E+00    0.159E-01
RMM:   2    -0.809792797813E+02   -0.18330E-02   -0.20732E-02  2399   0.999E-01    0.106E-01
RMM:   3    -0.809798426792E+02   -0.56290E-03   -0.59301E-03  2677   0.339E-01    0.897E-02
RMM:   4    -0.809797600140E+02    0.82665E-04   -0.69975E-04  2477   0.139E-01    0.673E-02
RMM:   5    -0.809797356746E+02    0.24339E-04   -0.23199E-04  2210   0.855E-02    0.406E-02
RMM:   6    -0.809797209873E+02    0.14687E-04   -0.11126E-04  1931   0.767E-02    0.126E-02
RMM:   7    -0.809797225019E+02   -0.15146E-05   -0.34173E-05  1502   0.377E-02
  50 F= -.84093091E+02 E0= -.84087465E+02  d E =-.709468E-02
       N       E                     dE             d eps       ncg     rms          rms(c)
DAV:   1    -0.809824283703E+02   -0.27074E-02   -0.30993E+00  2000   0.696E+00    0.319E-01
RMM:   2    -0.809895001160E+02   -0.70717E-02   -0.81076E-02  2368   0.201E+00    0.208E-01
RMM:   3    -0.809917133435E+02   -0.22132E-02   -0.25201E-02  2701   0.690E-01    0.158E-01
RMM:   4    -0.809916677560E+02    0.45587E-04   -0.26502E-03  2639   0.235E-01    0.110E-01
RMM:   5    -0.809917502450E+02   -0.82489E-04   -0.12544E-03  2479   0.194E-01    0.595E-02
RMM:   6    -0.809916412462E+02    0.10900E-03   -0.28556E-04  2261   0.106E-01    0.326E-02
RMM:   7    -0.809916011201E+02    0.40126E-04   -0.81741E-05  1764   0.716E-02    0.156E-02
RMM:   8    -0.809916020976E+02   -0.97748E-06   -0.69467E-05  1712   0.339E-02
  51 F= -.84099064E+02 E0= -.84093568E+02  d E =-.130681E-01
       N       E                     dE             d eps       ncg     rms          rms(c)
DAV:   1    -0.809600543526E+02    0.31547E-01   -0.12380E+01  2000   0.139E+01    0.665E-01
RMM:   2    -0.809908772748E+02   -0.30823E-01   -0.35060E-01  2406   0.411E+00    0.426E-01
RMM:   3    -0.809995414575E+02   -0.86642E-02   -0.10010E-01  2698   0.138E+00    0.329E-01
RMM:   4    -0.809993692379E+02    0.17222E-03   -0.11187E-02  2692   0.477E-01    0.236E-01
RMM:   5    -0.809998389053E+02   -0.46967E-03   -0.38896E-03  2353   0.388E-01    0.128E-01
RMM:   6    -0.809991787337E+02    0.66017E-03   -0.23713E-03  2693   0.214E-01    0.750E-02
RMM:   7    -0.809989726438E+02    0.20609E-03   -0.32990E-04  2110   0.137E-01    0.404E-02
RMM:   8    -0.809989562050E+02    0.16439E-04   -0.53497E-04  2440   0.832E-02    0.174E-02
RMM:   9    -0.809989585849E+02   -0.23799E-05   -0.61648E-05  1718   0.496E-02
  52 F= -.84094852E+02 E0= -.84089570E+02  d E =-.885544E-02
       N       E                     dE             d eps       ncg     rms          rms(c)
DAV:   1    -0.809787523396E+02    0.20204E-01   -0.62074E+00  2000   0.986E+00    0.438E-01
RMM:   2    -0.809935292127E+02   -0.14777E-01   -0.16502E-01  2429   0.274E+00    0.279E-01
RMM:   3    -0.809965819371E+02   -0.30527E-02   -0.36862E-02  2704   0.909E-01    0.220E-01
RMM:   4    -0.809964757428E+02    0.10619E-03   -0.45600E-03  2636   0.343E-01    0.170E-01
RMM:   5    -0.809962636866E+02    0.21206E-03   -0.19755E-03  2668   0.216E-01    0.112E-01
RMM:   6    -0.809960243271E+02    0.23936E-03   -0.78841E-04  2254   0.188E-01    0.292E-02
RMM:   7    -0.809960338862E+02   -0.95591E-05   -0.27062E-04  2248   0.692E-02    0.168E-02
RMM:   8    -0.809960238060E+02    0.10080E-04   -0.38031E-05  1565   0.502E-02    0.858E-03
RMM:   9    -0.809960238142E+02   -0.82268E-08   -0.28119E-05  1470   0.281E-02
  53 F= -.84100059E+02 E0= -.84094633E+02  d E =-.140630E-01
       N       E                     dE             d eps       ncg     rms          rms(c)
DAV:   1    -0.809982069699E+02   -0.21832E-02   -0.56365E-01  2000   0.296E+00    0.140E-01
RMM:   2    -0.809996233001E+02   -0.14163E-02   -0.16588E-02  2408   0.848E-01    0.961E-02
RMM:   3    -0.809998805948E+02   -0.25729E-03   -0.31213E-03  2691   0.272E-01    0.793E-02
RMM:   4    -0.809998510395E+02    0.29555E-04   -0.41100E-04  2391   0.108E-01    0.658E-02
RMM:   5    -0.809998137153E+02    0.37324E-04   -0.14813E-04  2029   0.756E-02    0.414E-02
RMM:   6    -0.809998023417E+02    0.11374E-04   -0.12224E-04  1898   0.751E-02    0.136E-02
RMM:   7    -0.809998025524E+02   -0.21066E-06   -0.22009E-05  1368   0.368E-02
  54 F= -.84101580E+02 E0= -.84096236E+02  d E =-.152060E-02
       N       E                     dE             d eps       ncg     rms          rms(c)
DAV:   1    -0.810005078779E+02   -0.70554E-03   -0.10308E-01  2000   0.127E+00    0.599E-02
RMM:   2    -0.810007752557E+02   -0.26738E-03   -0.31169E-03  2428   0.361E-01    0.413E-02
RMM:   3    -0.810008224344E+02   -0.47179E-04   -0.57787E-04  2436   0.116E-01    0.340E-02
RMM:   4    -0.810008203851E+02    0.20493E-05   -0.69740E-05  1737   0.575E-02
  55 F= -.84101638E+02 E0= -.84096345E+02  d E =-.157843E-02
       N       E                     dE             d eps       ncg     rms          rms(c)
DAV:   1    -0.810004529473E+02    0.36949E-03   -0.13147E-02  2144   0.460E-01    0.233E-02
RMM:   2    -0.810005044785E+02   -0.51531E-04   -0.48854E-04  2430   0.141E-01    0.157E-02
RMM:   3    -0.810005020310E+02    0.24475E-05   -0.84308E-05  1677   0.543E-02
  56 F= -.84101658E+02 E0= -.84096326E+02  d E =-.159915E-02
       N       E                     dE             d eps       ncg     rms          rms(c)
DAV:   1    -0.810005886602E+02   -0.84182E-04   -0.94610E-04  2632   0.131E-01    0.710E-03
RMM:   2    -0.810005933601E+02   -0.46999E-05   -0.35318E-05  1423   0.348E-02
  57 F= -.84101657E+02 E0= -.84096335E+02  d E =-.159738E-02
       N       E                     dE             d eps       ncg     rms          rms(c)
DAV:   1    -0.810005360406E+02    0.52620E-04   -0.36277E-04  2472   0.820E-02    0.389E-03
RMM:   2    -0.810005391545E+02   -0.31138E-05   -0.11467E-05  1154   0.271E-02
  58 F= -.84101661E+02 E0= -.84096333E+02  d E =-.160219E-02
       N       E                     dE             d eps       ncg     rms          rms(c)
DAV:   1    -0.810013545266E+02   -0.81849E-03   -0.50866E-02  2000   0.871E-01    0.345E-02
RMM:   2    -0.810014759731E+02   -0.12145E-03   -0.12998E-03  2532   0.235E-01    0.227E-02
RMM:   3    -0.810015061099E+02   -0.30137E-04   -0.29655E-04  1770   0.761E-02    0.195E-02
RMM:   4    -0.810015033213E+02    0.27885E-05   -0.35483E-05  1470   0.503E-02
  59 F= -.84102117E+02 E0= -.84096788E+02  d E =-.455449E-03
       N       E                     dE             d eps       ncg     rms          rms(c)
DAV:   1    -0.810030114282E+02   -0.15053E-02   -0.46061E-01  2000   0.262E+00    0.109E-01
RMM:   2    -0.810040527921E+02   -0.10414E-02   -0.11147E-02  2519   0.652E-01    0.746E-02
RMM:   3    -0.810042705158E+02   -0.21772E-03   -0.21760E-03  2586   0.205E-01    0.619E-02
RMM:   4    -0.810042386477E+02    0.31868E-04   -0.35552E-04  2312   0.993E-02    0.489E-02
RMM:   5    -0.810042249212E+02    0.13726E-04   -0.96225E-05  1853   0.554E-02    0.164E-02
RMM:   6    -0.810042237565E+02    0.11648E-05   -0.30220E-05  1437   0.483E-02
  60 F= -.84103316E+02 E0= -.84097978E+02  d E =-.165447E-02
       N       E                     dE             d eps       ncg     rms          rms(c)
DAV:   1    -0.810040235746E+02    0.20135E-03   -0.18450E+00  2000   0.523E+00    0.219E-01
RMM:   2    -0.810080926918E+02   -0.40691E-02   -0.43329E-02  2484   0.132E+00    0.146E-01
RMM:   3    -0.810090715937E+02   -0.97890E-03   -0.98426E-03  2657   0.427E-01    0.122E-01
RMM:   4    -0.810089897432E+02    0.81851E-04   -0.14302E-03  2623   0.189E-01    0.102E-01
RMM:   5    -0.810088898285E+02    0.99915E-04   -0.37321E-04  2366   0.952E-02    0.452E-02
RMM:   6    -0.810088894566E+02    0.37191E-06   -0.17914E-04  2049   0.893E-02    0.209E-02
RMM:   7    -0.810088847211E+02    0.47355E-05   -0.39003E-05  1558   0.455E-02
  61 F= -.84104955E+02 E0= -.84099581E+02  d E =-.329387E-02
       N       E                     dE             d eps       ncg     rms          rms(c)
DAV:   1    -0.809946610439E+02    0.14228E-01   -0.73775E+00  2000   0.104E+01    0.455E-01
RMM:   2    -0.810112535948E+02   -0.16593E-01   -0.17726E-01  2485   0.269E+00    0.296E-01
RMM:   3    -0.810159269712E+02   -0.46734E-02   -0.46817E-02  2671   0.897E-01    0.252E-01
RMM:   4    -0.810156334701E+02    0.29350E-03   -0.62826E-03  2675   0.389E-01    0.218E-01
RMM:   5    -0.810151591785E+02    0.47429E-03   -0.14536E-03  2583   0.177E-01    0.104E-01
RMM:   6    -0.810152156475E+02   -0.56469E-04   -0.10187E-03  2522   0.173E-01    0.548E-02
RMM:   7    -0.810151568277E+02    0.58820E-04   -0.12796E-04  1977   0.868E-02    0.379E-02
RMM:   8    -0.810151268906E+02    0.29937E-04   -0.15968E-04  2090   0.493E-02    0.108E-02
RMM:   9    -0.810151293372E+02   -0.24465E-05   -0.23625E-05  1441   0.370E-02
  62 F= -.84105241E+02 E0= -.84099803E+02  d E =-.357999E-02
       N       E                     dE             d eps       ncg     rms          rms(c)
DAV:   1    -0.810089466561E+02    0.61802E-02   -0.15730E+00  2000   0.481E+00    0.194E-01
RMM:   2    -0.810123992574E+02   -0.34526E-02   -0.36589E-02  2535   0.114E+00    0.128E-01
RMM:   3    -0.810128642350E+02   -0.46498E-03   -0.49861E-03  2633   0.333E-01    0.101E-01
RMM:   4    -0.810128426842E+02    0.21551E-04   -0.11338E-03  2595   0.171E-01    0.819E-02
RMM:   5    -0.810127913848E+02    0.51299E-04   -0.35037E-04  2347   0.101E-01    0.287E-02
RMM:   6    -0.810127659745E+02    0.25410E-04   -0.88732E-05  1815   0.759E-02    0.124E-02
RMM:   7    -0.810127666628E+02   -0.68833E-06   -0.36659E-05  1557   0.353E-02
  63 F= -.84105613E+02 E0= -.84100204E+02  d E =-.395179E-02
       N       E                     dE             d eps       ncg     rms          rms(c)
DAV:   1    -0.810137286839E+02   -0.96271E-03   -0.17611E-01  2000   0.161E+00    0.717E-02
RMM:   2    -0.810140716981E+02   -0.34301E-03   -0.40109E-03  2525   0.397E-01    0.480E-02
RMM:   3    -0.810141616708E+02   -0.89973E-04   -0.10251E-03  2223   0.132E-01    0.373E-02
RMM:   4    -0.810141733610E+02   -0.11690E-04   -0.13143E-04  1978   0.715E-02    0.326E-02
RMM:   5    -0.810141578689E+02    0.15492E-04   -0.24395E-05  1425   0.384E-02    0.166E-02
RMM:   6    -0.810141586344E+02   -0.76549E-06   -0.18501E-05  1311   0.392E-02
  64 F= -.84106222E+02 E0= -.84100820E+02  d E =-.609002E-03
       N       E                     dE             d eps       ncg     rms          rms(c)
DAV:   1    -0.810145884489E+02   -0.43058E-03   -0.16629E-01  2000   0.156E+00    0.704E-02
RMM:   2    -0.810149519923E+02   -0.36354E-03   -0.41434E-03  2421   0.401E-01    0.472E-02
RMM:   3    -0.810150260875E+02   -0.74095E-04   -0.83973E-04  2364   0.130E-01    0.372E-02
RMM:   4    -0.810150352588E+02   -0.91713E-05   -0.12394E-04  1976   0.680E-02    0.315E-02
RMM:   5    -0.810150266347E+02    0.86241E-05   -0.27193E-05  1458   0.417E-02
  65 F= -.84106332E+02 E0= -.84100927E+02  d E =-.718374E-03
       N       E                     dE             d eps       ncg     rms          rms(c)
DAV:   1    -0.810157122064E+02   -0.67695E-03   -0.19193E-01  2000   0.167E+00    0.681E-02
RMM:   2    -0.810161406859E+02   -0.42848E-03   -0.44840E-03  2585   0.396E-01    0.476E-02
RMM:   3    -0.810162187431E+02   -0.78057E-04   -0.75047E-04  2338   0.127E-01    0.414E-02
RMM:   4    -0.810161934240E+02    0.25319E-04   -0.93154E-05  1766   0.648E-02    0.313E-02
RMM:   5    -0.810161961649E+02   -0.27409E-05   -0.45806E-05  1542   0.440E-02
  66 F= -.84106803E+02 E0= -.84101376E+02  d E =-.471851E-03
       N       E                     dE             d eps       ncg     rms          rms(c)
DAV:   1    -0.810149861410E+02    0.12073E-02   -0.17407E+00  2000   0.501E+00    0.204E-01
RMM:   2    -0.810186431244E+02   -0.36570E-02   -0.38142E-02  2523   0.115E+00    0.138E-01
RMM:   3    -0.810194822400E+02   -0.83912E-03   -0.80020E-03  2648   0.385E-01    0.120E-01
RMM:   4    -0.810192912543E+02    0.19099E-03   -0.10271E-03  2482   0.174E-01    0.938E-02
RMM:   5    -0.810192424673E+02    0.48787E-04   -0.38444E-04  2267   0.852E-02    0.290E-02
RMM:   6    -0.810192550574E+02   -0.12590E-04   -0.77071E-05  1730   0.494E-02    0.196E-02
RMM:   7    -0.810192471837E+02    0.78738E-05   -0.19692E-05  1339   0.459E-02
  67 F= -.84107777E+02 E0= -.84102262E+02  d E =-.144524E-02
       N       E                     dE             d eps       ncg     rms          rms(c)
DAV:   1    -0.810194726783E+02   -0.21762E-03   -0.41092E-01  2000   0.242E+00    0.991E-02
RMM:   2    -0.810203850435E+02   -0.91237E-03   -0.95241E-03  2558   0.551E-01    0.679E-02
RMM:   3    -0.810205148690E+02   -0.12983E-03   -0.13014E-03  2512   0.167E-01    0.580E-02
RMM:   4    -0.810204759231E+02    0.38946E-04   -0.22088E-04  2134   0.852E-02    0.458E-02
RMM:   5    -0.810204718306E+02    0.40925E-05   -0.87385E-05  1691   0.534E-02
  68 F= -.84108005E+02 E0= -.84102463E+02  d E =-.167322E-02
       N       E                     dE             d eps       ncg     rms          rms(c)
DAV:   1    -0.810185741526E+02    0.19018E-02   -0.16288E+00  2000   0.482E+00    0.195E-01
RMM:   2    -0.810221009245E+02   -0.35268E-02   -0.36626E-02  2541   0.108E+00    0.134E-01
RMM:   3    -0.810226591080E+02   -0.55818E-03   -0.54221E-03  2632   0.340E-01    0.115E-01
RMM:   4    -0.810224883885E+02    0.17072E-03   -0.90689E-04  2482   0.162E-01    0.886E-02
RMM:   5    -0.810224558140E+02    0.32575E-04   -0.37133E-04  2222   0.860E-02    0.233E-02
RMM:   6    -0.810224582296E+02   -0.24156E-05   -0.57653E-05  1621   0.469E-02
  69 F= -.84108013E+02 E0= -.84102394E+02  d E =-.168157E-02
       N       E                     dE             d eps       ncg     rms          rms(c)
DAV:   1    -0.810222306075E+02    0.22521E-03   -0.19203E-01  2000   0.167E+00    0.108E-01
RMM:   2    -0.810226310064E+02   -0.40040E-03   -0.54049E-03  2732   0.438E-01    0.789E-02
RMM:   3    -0.810227260175E+02   -0.95011E-04   -0.13369E-03  2322   0.173E-01    0.630E-02
RMM:   4    -0.810226317138E+02    0.94304E-04   -0.31866E-04  2106   0.977E-02    0.345E-02
RMM:   5    -0.810226131770E+02    0.18537E-04   -0.91618E-05  1850   0.603E-02    0.191E-02
RMM:   6    -0.810226078765E+02    0.53006E-05   -0.21138E-05  1372   0.426E-02
  70 F= -.84107973E+02 E0= -.84102273E+02  d E =0.397782E-04
       N       E                     dE             d eps       ncg     rms          rms(c)
DAV:   1    -0.810229323044E+02   -0.31913E-03   -0.48357E-02  2000   0.840E-01    0.528E-02
RMM:   2    -0.810230179149E+02   -0.85611E-04   -0.11922E-03  2588   0.218E-01    0.390E-02
RMM:   3    -0.810230517411E+02   -0.33826E-04   -0.35874E-04  1914   0.906E-02    0.318E-02
RMM:   4    -0.810230309296E+02    0.20812E-04   -0.77351E-05  1667   0.560E-02    0.157E-02
RMM:   5    -0.810230304506E+02    0.47905E-06   -0.19203E-05  1357   0.343E-02
  71 F= -.84108491E+02 E0= -.84102825E+02  d E =-.477733E-03
       N       E                     dE             d eps       ncg     rms          rms(c)
DAV:   1    -0.810236234036E+02   -0.59247E-03   -0.38979E-02  2000   0.755E-01    0.324E-02
RMM:   2    -0.810237082753E+02   -0.84872E-04   -0.93203E-04  2274   0.210E-01    0.247E-02
RMM:   3    -0.810237291923E+02   -0.20917E-04   -0.26043E-04  2059   0.752E-02    0.195E-02
RMM:   4    -0.810237284702E+02    0.72211E-06   -0.30013E-05  1377   0.423E-02
  72 F= -.84109294E+02 E0= -.84103608E+02  d E =-.803367E-03
       N       E                     dE             d eps       ncg     rms          rms(c)
DAV:   1    -0.810247228240E+02   -0.99363E-03   -0.34962E-01  2000   0.226E+00    0.101E-01
RMM:   2    -0.810255123210E+02   -0.78950E-03   -0.86697E-03  2518   0.554E-01    0.750E-02
RMM:   3    -0.810256357625E+02   -0.12344E-03   -0.15914E-03  2603   0.187E-01    0.624E-02
RMM:   4    -0.810255880447E+02    0.47718E-04   -0.19895E-04  2098   0.838E-02    0.475E-02
RMM:   5    -0.810255831653E+02    0.48794E-05   -0.92540E-05  1857   0.622E-02
  73 F= -.84111473E+02 E0= -.84105755E+02  d E =-.298212E-02
       N       E                     dE             d eps       ncg     rms          rms(c)
DAV:   1    -0.810248266333E+02    0.76141E-03   -0.13927E+00  2000   0.450E+00    0.202E-01
RMM:   2    -0.810279928066E+02   -0.31662E-02   -0.34662E-02  2575   0.109E+00    0.139E-01
RMM:   3    -0.810284737191E+02   -0.48091E-03   -0.58890E-03  2655   0.363E-01    0.114E-01
RMM:   4    -0.810283171003E+02    0.15662E-03   -0.80866E-04  2474   0.155E-01    0.917E-02
RMM:   5    -0.810282707382E+02    0.46362E-04   -0.33984E-04  2314   0.102E-01    0.502E-02
RMM:   6    -0.810282679910E+02    0.27472E-05   -0.18273E-04  1986   0.882E-02    0.177E-02
RMM:   7    -0.810282664452E+02    0.15458E-05   -0.51734E-05  1633   0.370E-02
  74 F= -.84114838E+02 E0= -.84108973E+02  d E =-.634680E-02
       N       E                     dE             d eps       ncg     rms          rms(c)
DAV:   1    -0.810154118094E+02    0.12856E-01   -0.56012E+00  2000   0.899E+00    0.413E-01
RMM:   2    -0.810283145447E+02   -0.12903E-01   -0.14147E-01  2492   0.224E+00    0.285E-01
RMM:   3    -0.810304916001E+02   -0.21771E-02   -0.26085E-02  2689   0.762E-01    0.235E-01
RMM:   4    -0.810297874839E+02    0.70412E-03   -0.33073E-03  2582   0.305E-01    0.193E-01
RMM:   5    -0.810295897482E+02    0.19774E-03   -0.14332E-03  2555   0.195E-01    0.108E-01
RMM:   6    -0.810295567907E+02    0.32958E-04   -0.89638E-04  2276   0.187E-01    0.419E-02
RMM:   7    -0.810295407932E+02    0.15997E-04   -0.23292E-04  2199   0.633E-02    0.272E-02
RMM:   8    -0.810295223606E+02    0.18433E-04   -0.85534E-05  1735   0.545E-02    0.943E-03
RMM:   9    -0.810295235568E+02   -0.11962E-05   -0.25457E-05  1409   0.349E-02
  75 F= -.84117559E+02 E0= -.84111483E+02  d E =-.906767E-02
       N       E                     dE             d eps       ncg     rms          rms(c)
DAV:   1    -0.810295038900E+02    0.18471E-04   -0.12130E-01  2032   0.131E+00    0.677E-02
RMM:   2    -0.810297509892E+02   -0.24710E-03   -0.30982E-03  2580   0.356E-01    0.516E-02
RMM:   3    -0.810297998503E+02   -0.48861E-04   -0.74138E-04  2266   0.131E-01    0.399E-02
RMM:   4    -0.810297845504E+02    0.15300E-04   -0.14015E-04  1927   0.675E-02    0.282E-02
RMM:   5    -0.810297736953E+02    0.10855E-04   -0.40707E-05  1603   0.475E-02    0.133E-02
RMM:   6    -0.810297730683E+02    0.62700E-06   -0.14492E-05  1288   0.328E-02
  76 F= -.84118015E+02 E0= -.84111895E+02  d E =-.456351E-03
       N       E                     dE             d eps       ncg     rms          rms(c)
DAV:   1    -0.810297708615E+02    0.28338E-05   -0.25415E-05  2320   0.298E-02    0.331E-03
RMM:   2    -0.810297713455E+02   -0.48405E-06   -0.23280E-06  1175   0.130E-02
  77 F= -.84118016E+02 E0= -.84111896E+02  d E =-.457295E-03
       N       E                     dE             d eps       ncg     rms          rms(c)
DAV:   1    -0.810297745852E+02   -0.37237E-05   -0.13093E-05  2168   0.176E-02    0.176E-03
RMM:   2    -0.810297753388E+02   -0.75358E-06   -0.99989E-07   913   0.852E-03
  78 F= -.84118018E+02 E0= -.84111896E+02  d E =-.458971E-03
       N       E                     dE             d eps       ncg     rms          rms(c)
DAV:   1    -0.810298778942E+02   -0.10331E-03   -0.12033E-02  2048   0.408E-01    0.173E-02
RMM:   2    -0.810299027957E+02   -0.24901E-04   -0.27038E-04  1905   0.101E-01    0.118E-02
RMM:   3    -0.810299074951E+02   -0.46995E-05   -0.53738E-05  1440   0.408E-02
  79 F= -.84118578E+02 E0= -.84112458E+02  d E =-.560880E-03
       N       E                     dE             d eps       ncg     rms          rms(c)
DAV:   1    -0.810299841268E+02   -0.81331E-04   -0.10847E-01  2000   0.123E+00    0.559E-02
RMM:   2    -0.810302206593E+02   -0.23653E-03   -0.26407E-03  2626   0.305E-01    0.382E-02
RMM:   3    -0.810302646283E+02   -0.43969E-04   -0.50026E-04  2043   0.102E-01    0.307E-02
RMM:   4    -0.810302633275E+02    0.13008E-05   -0.67004E-05  1670   0.556E-02
  80 F= -.84119170E+02 E0= -.84113052E+02  d E =-.115200E-02
       N       E                     dE             d eps       ncg     rms          rms(c)
DAV:   1    -0.810296720537E+02    0.59257E-03   -0.43175E-01  2000   0.245E+00    0.108E-01
RMM:   2    -0.810305814193E+02   -0.90937E-03   -0.99607E-03  2616   0.591E-01    0.724E-02
RMM:   3    -0.810307740939E+02   -0.19267E-03   -0.21076E-03  2476   0.196E-01    0.557E-02
RMM:   4    -0.810307855222E+02   -0.11428E-04   -0.30710E-04  2206   0.940E-02    0.435E-02
RMM:   5    -0.810307664757E+02    0.19047E-04   -0.97055E-05  1862   0.693E-02    0.235E-02
RMM:   6    -0.810307646065E+02    0.18691E-05   -0.44225E-05  1573   0.506E-02
  81 F= -.84120138E+02 E0= -.84113978E+02  d E =-.212041E-02
       N       E                     dE             d eps       ncg     rms          rms(c)
DAV:   1    -0.810268125964E+02    0.39539E-02   -0.17347E+00  2000   0.489E+00    0.216E-01
RMM:   2    -0.810306330095E+02   -0.38204E-02   -0.41449E-02  2617   0.112E+00    0.138E-01
RMM:   3    -0.810309651052E+02   -0.33210E-03   -0.50089E-03  2558   0.337E-01    0.102E-01
RMM:   4    -0.810310010101E+02   -0.35905E-04   -0.91850E-04  2444   0.163E-01    0.673E-02
RMM:   5    -0.810310906923E+02   -0.89682E-04   -0.52953E-04  2461   0.112E-01    0.479E-02
RMM:   6    -0.810309598403E+02    0.13085E-03   -0.12700E-04  1874   0.827E-02    0.134E-02
RMM:   7    -0.810309622895E+02   -0.24492E-05   -0.71671E-05  1701   0.380E-02
  82 F= -.84121587E+02 E0= -.84115396E+02  d E =-.356990E-02
       N       E                     dE             d eps       ncg     rms          rms(c)
DAV:   1    -0.810304360409E+02    0.52380E-03   -0.15389E-01  2000   0.145E+00    0.627E-02
RMM:   2    -0.810307759881E+02   -0.33995E-03   -0.36932E-03  2573   0.346E-01    0.421E-02
RMM:   3    -0.810308132511E+02   -0.37263E-04   -0.50094E-04  2181   0.104E-01    0.312E-02
RMM:   4    -0.810308180596E+02   -0.48085E-05   -0.80203E-05  1734   0.589E-02
  83 F= -.84121703E+02 E0= -.84115504E+02  d E =-.368578E-02
       N       E                     dE             d eps       ncg     rms          rms(c)
DAV:   1    -0.810291468698E+02    0.16664E-02   -0.16355E-01  2000   0.152E+00    0.116E-01
RMM:   2    -0.810294320400E+02   -0.28517E-03   -0.47421E-03  2701   0.407E-01    0.819E-02
RMM:   3    -0.810295624281E+02   -0.13039E-03   -0.14194E-03  2387   0.173E-01    0.729E-02
RMM:   4    -0.810294181961E+02    0.14423E-03   -0.33892E-04  2099   0.107E-01    0.389E-02
RMM:   5    -0.810294060468E+02    0.12149E-04   -0.10355E-04  1880   0.578E-02    0.253E-02
RMM:   6    -0.810293962046E+02    0.98421E-05   -0.28901E-05  1478   0.463E-02
  84 F= -.84120282E+02 E0= -.84114122E+02  d E =0.142110E-02
       N       E                     dE             d eps       ncg     rms          rms(c)
DAV:   1    -0.810307613416E+02   -0.13553E-02   -0.10137E-01  2000   0.119E+00    0.878E-02
RMM:   2    -0.810309260717E+02   -0.16473E-03   -0.27723E-03  2664   0.314E-01    0.613E-02
RMM:   3    -0.810310119686E+02   -0.85897E-04   -0.82374E-04  2266   0.126E-01    0.426E-02
RMM:   4    -0.810309610409E+02    0.50928E-04   -0.21677E-04  2035   0.791E-02    0.285E-02
RMM:   5    -0.810309501438E+02    0.10897E-04   -0.29767E-05  1463   0.374E-02    0.174E-02
RMM:   6    -0.810309495089E+02    0.63492E-06   -0.15694E-05  1290   0.383E-02
  85 F= -.84121835E+02 E0= -.84115642E+02  d E =-.131579E-03
       N       E                     dE             d eps       ncg     rms          rms(c)
DAV:   1    -0.810315257800E+02   -0.57564E-03   -0.33876E-02  2000   0.709E-01    0.329E-02
RMM:   2    -0.810316089769E+02   -0.83197E-04   -0.93179E-04  2507   0.199E-01    0.200E-02
RMM:   3    -0.810316268214E+02   -0.17845E-04   -0.18506E-04  1833   0.603E-02    0.154E-02
RMM:   4    -0.810316270219E+02   -0.20050E-06   -0.33998E-05  1467   0.479E-02
  86 F= -.84122414E+02 E0= -.84116218E+02  d E =-.578946E-03
       N       E                     dE             d eps       ncg     rms          rms(c)
DAV:   1    -0.810322566525E+02   -0.62983E-03   -0.30213E-01  2000   0.212E+00    0.992E-02
RMM:   2    -0.810329978866E+02   -0.74123E-03   -0.82372E-03  2579   0.556E-01    0.596E-02
RMM:   3    -0.810331346632E+02   -0.13678E-03   -0.13435E-03  2518   0.157E-01    0.485E-02
RMM:   4    -0.810331008407E+02    0.33823E-04   -0.25138E-04  2282   0.860E-02    0.373E-02
RMM:   5    -0.810330940530E+02    0.67877E-05   -0.71581E-05  1740   0.490E-02
  87 F= -.84123590E+02 E0= -.84117410E+02  d E =-.175536E-02
