       N       E                     dE             d eps       ncg     rms          rms(c)
DAV:   1     0.293427969155E+04    0.29343E+04   -0.89580E+04  7016   0.229E+03
DAV:   2     0.602726329201E+03   -0.23316E+04   -0.22340E+04  5632   0.754E+02
DAV:   3    -0.512300666601E+01   -0.60785E+03   -0.57906E+03  6576   0.268E+02
DAV:   4    -0.933007553398E+02   -0.88178E+02   -0.86277E+02  7760   0.105E+02
DAV:   5    -0.996925339002E+02   -0.63918E+01   -0.63030E+01  8128   0.282E+01    0.285E+01
DAV:   6    -0.988461822808E+02    0.84635E+00   -0.45053E+01  8920   0.224E+01    0.317E+01
DAV:   7    -0.988761765426E+02   -0.29994E-01   -0.18161E+02  7128   0.296E+01    0.190E+01
DAV:   8    -0.993671608439E+02   -0.49098E+00   -0.38931E+01  8160   0.236E+01    0.172E+01
DAV:   9    -0.961301473945E+02    0.32370E+01   -0.19592E+01  6912   0.110E+01    0.112E+01
DAV:  10    -0.933692666181E+02    0.27609E+01   -0.53742E+00  7168   0.738E+00    0.798E+00
DAV:  11    -0.924231988842E+02    0.94607E+00   -0.24374E+00  7984   0.424E+00    0.451E+00
DAV:  12    -0.921786977022E+02    0.24450E+00   -0.40099E-01  8056   0.188E+00    0.229E+00
DAV:  13    -0.922054899221E+02   -0.26792E-01   -0.68491E-02  7264   0.150E+00    0.239E+00
DAV:  14    -0.921345431379E+02    0.70947E-01   -0.95809E-02  7520   0.131E+00    0.116E+00
DAV:  15    -0.921237400568E+02    0.10803E-01   -0.82144E-02  7632   0.818E-01    0.475E-01
DAV:  16    -0.921274598629E+02   -0.37198E-02   -0.38559E-02  6920   0.728E-01    0.630E-01
DAV:  17    -0.921235144608E+02    0.39454E-02   -0.48973E-03  7112   0.313E-01    0.364E-01
DAV:  18    -0.921219367496E+02    0.15777E-02   -0.62357E-03  7808   0.301E-01    0.696E-02
DAV:  19    -0.921221791113E+02   -0.24236E-03   -0.91097E-04  7336   0.140E-01    0.359E-02
DAV:  20    -0.921224377708E+02   -0.25866E-03   -0.21200E-04  6216   0.519E-02    0.412E-02
DAV:  21    -0.921225217869E+02   -0.84016E-04   -0.10995E-04  5736   0.476E-02    0.351E-02
DAV:  22    -0.921226283562E+02   -0.10657E-03   -0.31233E-05  4784   0.258E-02    0.227E-02
DAV:  23    -0.921227013339E+02   -0.72978E-04   -0.16640E-05  4992   0.198E-02    0.144E-02
DAV:  24    -0.921227710473E+02   -0.69713E-04   -0.11901E-05  4512   0.152E-02    0.503E-03
DAV:  25    -0.921228099715E+02   -0.38924E-04   -0.34543E-06  4064   0.133E-02    0.696E-03
DAV:  26    -0.921228402151E+02   -0.30244E-04   -0.29652E-06  3784   0.777E-03    0.105E-02
DAV:  27    -0.921228711697E+02   -0.30955E-04   -0.24518E-06  4040   0.675E-03    0.917E-03
DAV:  28    -0.921228808922E+02   -0.97225E-05   -0.20785E-06  3688   0.713E-03
   1 F= -.95088101E+02 E0= -.95086211E+02  d E =-.950881E+02
       N       E                     dE             d eps       ncg     rms          rms(c)
DAV:   1    -0.920799047838E+02    0.42966E-01   -0.40188E+00  5880   0.425E+00    0.627E-01
DAV:   2    -0.920840990364E+02   -0.41943E-02   -0.10872E-01  7424   0.994E-01    0.412E-01
DAV:   3    -0.920842517674E+02   -0.15273E-03   -0.18265E-02  7544   0.621E-01    0.317E-01
DAV:   4    -0.920836829102E+02    0.56886E-03   -0.15597E-02  7544   0.629E-01    0.227E-01
DAV:   5    -0.920843029815E+02   -0.62007E-03   -0.92830E-03  7192   0.383E-01    0.325E-01
DAV:   6    -0.920830783178E+02    0.12247E-02   -0.57190E-03  7352   0.206E-01    0.129E-01
DAV:   7    -0.920828977584E+02    0.18056E-03   -0.82251E-04  6584   0.117E-01    0.410E-02
DAV:   8    -0.920828709952E+02    0.26763E-04   -0.13693E-04  6248   0.550E-02    0.136E-02
DAV:   9    -0.920828749038E+02   -0.39087E-05   -0.11512E-05  4264   0.182E-02
   2 F= -.95046910E+02 E0= -.95045005E+02  d E =0.411909E-01
       N       E                     dE             d eps       ncg     rms          rms(c)
DAV:   1    -0.921221327543E+02   -0.39262E-01   -0.29370E+00  5752   0.363E+00    0.532E-01
DAV:   2    -0.921253355760E+02   -0.32028E-02   -0.79275E-02  7440   0.859E-01    0.343E-01
DAV:   3    -0.921257582447E+02   -0.42267E-03   -0.15561E-02  7816   0.612E-01    0.274E-01
DAV:   4    -0.921248888178E+02    0.86943E-03   -0.12287E-02  7864   0.557E-01    0.197E-01
DAV:   5    -0.921256128264E+02   -0.72401E-03   -0.70357E-03  7368   0.272E-01    0.304E-01
DAV:   6    -0.921244868940E+02    0.11259E-02   -0.38474E-03  6784   0.169E-01    0.923E-02
DAV:   7    -0.921244212113E+02    0.65683E-04   -0.53634E-04  7088   0.907E-02    0.389E-02
DAV:   8    -0.921243879327E+02    0.33279E-04   -0.10142E-04  6072   0.450E-02    0.973E-03
DAV:   9    -0.921243875348E+02    0.39789E-06   -0.71463E-06  4024   0.139E-02
   3 F= -.95089433E+02 E0= -.95087541E+02  d E =-.133233E-02
       N       E                     dE             d eps       ncg     rms          rms(c)
DAV:   1    -0.921291812621E+02   -0.47933E-02   -0.10725E+00  5792   0.255E+00    0.242E-01
DAV:   2    -0.921320578802E+02   -0.28766E-02   -0.30561E-02  7000   0.629E-01    0.127E-01
DAV:   3    -0.921323965304E+02   -0.33865E-03   -0.45447E-03  7912   0.351E-01    0.125E-01
DAV:   4    -0.921320857886E+02    0.31074E-03   -0.22426E-03  8064   0.229E-01    0.868E-02
DAV:   5    -0.921322072890E+02   -0.12150E-03   -0.10443E-03  7104   0.902E-02    0.119E-01
DAV:   6    -0.921320569481E+02    0.15034E-03   -0.56872E-04  5856   0.680E-02    0.348E-02
DAV:   7    -0.921320414492E+02    0.15499E-04   -0.81197E-05  5912   0.361E-02    0.127E-02
DAV:   8    -0.921320402472E+02    0.12019E-05   -0.93405E-06  4368   0.159E-02
   4 F= -.95096240E+02 E0= -.95094292E+02  d E =-.680740E-02
       N       E                     dE             d eps       ncg     rms          rms(c)
DAV:   1    -0.921207260906E+02    0.11315E-01   -0.96760E+00  5776   0.771E+00    0.748E-01
DAV:   2    -0.921490019104E+02   -0.28276E-01   -0.30001E-01  6992   0.193E+00    0.385E-01
DAV:   3    -0.921519029043E+02   -0.29010E-02   -0.40954E-02  7696   0.105E+00    0.377E-01
DAV:   4    -0.921491485321E+02    0.27544E-02   -0.19617E-02  7920   0.741E-01    0.249E-01
DAV:   5    -0.921505877334E+02   -0.14392E-02   -0.98963E-03  7416   0.300E-01    0.384E-01
DAV:   6    -0.921490033148E+02    0.15844E-02   -0.61777E-03  6760   0.237E-01    0.112E-01
DAV:   7    -0.921488411726E+02    0.16214E-03   -0.82178E-04  7488   0.116E-01    0.397E-02
DAV:   8    -0.921488284449E+02    0.12728E-04   -0.10699E-04  5904   0.492E-02    0.131E-02
DAV:   9    -0.921488285878E+02   -0.14283E-06   -0.10667E-05  4392   0.192E-02
   5 F= -.95110555E+02 E0= -.95108467E+02  d E =-.211222E-01
       N       E                     dE             d eps       ncg     rms          rms(c)
DAV:   1    -0.920242084489E+02    0.12462E+00   -0.39070E+01  5776   0.157E+01    0.158E+00
DAV:   2    -0.921503712946E+02   -0.12616E+00   -0.13350E+00  7224   0.402E+00    0.787E-01
DAV:   3    -0.921649184344E+02   -0.14547E-01   -0.19346E-01  7984   0.235E+00    0.773E-01
DAV:   4    -0.921531518581E+02    0.11767E-01   -0.82892E-02  8192   0.151E+00    0.517E-01
DAV:   5    -0.921592998324E+02   -0.61480E-02   -0.40973E-02  8048   0.638E-01    0.801E-01
DAV:   6    -0.921525964855E+02    0.67033E-02   -0.27015E-02  7464   0.471E-01    0.231E-01
DAV:   7    -0.921519202652E+02    0.67622E-03   -0.34389E-03  7944   0.235E-01    0.844E-02
DAV:   8    -0.921518624671E+02    0.57798E-04   -0.46095E-04  6328   0.100E-01    0.266E-02
DAV:   9    -0.921518618967E+02    0.57036E-06   -0.52215E-05  5752   0.371E-02
   6 F= -.95108933E+02 E0= -.95106698E+02  d E =-.194996E-01
       N       E                     dE             d eps       ncg     rms          rms(c)
DAV:   1    -0.921200873184E+02    0.31775E-01   -0.11816E+01  5776   0.853E+00    0.866E-01
DAV:   2    -0.921556726959E+02   -0.35585E-01   -0.37654E-01  7288   0.216E+00    0.442E-01
DAV:   3    -0.921599863022E+02   -0.43136E-02   -0.57766E-02  7712   0.131E+00    0.456E-01
DAV:   4    -0.921558729790E+02    0.41133E-02   -0.30275E-02  7288   0.934E-01    0.337E-01
DAV:   5    -0.921567278653E+02   -0.85489E-03   -0.12777E-02  7784   0.330E-01    0.370E-01
DAV:   6    -0.921552609245E+02    0.14669E-02   -0.53295E-03  7424   0.232E-01    0.110E-01
DAV:   7    -0.921551072835E+02    0.15364E-03   -0.85870E-04  7208   0.136E-01    0.463E-02
DAV:   8    -0.921550975114E+02    0.97721E-05   -0.10758E-04  6032   0.507E-02    0.155E-02
DAV:   9    -0.921550973543E+02    0.15708E-06   -0.14226E-05  4768   0.227E-02
   7 F= -.95114691E+02 E0= -.95112519E+02  d E =-.252584E-01
       N       E                     dE             d eps       ncg     rms          rms(c)
DAV:   1    -0.921540815824E+02    0.10159E-02   -0.39213E+00  5752   0.496E+00    0.464E-01
DAV:   2    -0.921641103682E+02   -0.10029E-01   -0.11552E-01  6672   0.104E+00    0.271E-01
DAV:   3    -0.921644142696E+02   -0.30390E-03   -0.68219E-03  8160   0.313E-01    0.162E-01
DAV:   4    -0.921649671826E+02   -0.55291E-03   -0.39974E-03  7224   0.305E-01    0.152E-01
DAV:   5    -0.921644431668E+02    0.52402E-03   -0.31300E-03  7456   0.273E-01    0.535E-02
DAV:   6    -0.921645482307E+02   -0.10506E-03   -0.83846E-04  6880   0.114E-01    0.964E-02
DAV:   7    -0.921644131149E+02    0.13512E-03   -0.41487E-04  5944   0.691E-02    0.141E-02
DAV:   8    -0.921644136200E+02   -0.50514E-06   -0.35377E-05  5288   0.271E-02
   8 F= -.95122303E+02 E0= -.95120094E+02  d E =-.761124E-02
       N       E                     dE             d eps       ncg     rms          rms(c)
DAV:   1    -0.921645371839E+02   -0.12407E-03   -0.33044E-02  5640   0.456E-01    0.429E-02
DAV:   2    -0.921646221525E+02   -0.84969E-04   -0.98829E-04  6712   0.103E-01    0.258E-02
DAV:   3    -0.921646244079E+02   -0.22554E-05   -0.45582E-05  6664   0.270E-02
   9 F= -.95122359E+02 E0= -.95120148E+02  d E =-.766773E-02
       N       E                     dE             d eps       ncg     rms          rms(c)
DAV:   1    -0.921659535221E+02   -0.13314E-02   -0.34265E-02  5624   0.469E-01    0.473E-02
DAV:   2    -0.921660638690E+02   -0.11035E-03   -0.11154E-03  6896   0.125E-01    0.383E-02
DAV:   3    -0.921660705478E+02   -0.66788E-05   -0.33679E-04  6544   0.838E-02    0.424E-02
DAV:   4    -0.921660505569E+02    0.19991E-04   -0.10108E-04  5304   0.378E-02    0.228E-02
DAV:   5    -0.921660501150E+02    0.44192E-06   -0.42345E-05  4784   0.258E-02
  10 F= -.95123621E+02 E0= -.95121403E+02  d E =-.126195E-02
       N       E                     dE             d eps       ncg     rms          rms(c)
DAV:   1    -0.921693817747E+02   -0.33312E-02   -0.30749E-01  5752   0.140E+00    0.129E-01
DAV:   2    -0.921701828437E+02   -0.80107E-03   -0.88992E-03  6880   0.297E-01    0.745E-02
DAV:   3    -0.921702120632E+02   -0.29219E-04   -0.43072E-04  7784   0.811E-02    0.446E-02
DAV:   4    -0.921702500165E+02   -0.37953E-04   -0.19330E-04  6424   0.683E-02    0.493E-02
DAV:   5    -0.921702234001E+02    0.26616E-04   -0.17721E-04  5520   0.511E-02    0.282E-02
DAV:   6    -0.921702274621E+02   -0.40620E-05   -0.89810E-05  4928   0.322E-02
  11 F= -.95127309E+02 E0= -.95125110E+02  d E =-.495015E-02
       N       E                     dE             d eps       ncg     rms          rms(c)
DAV:   1    -0.921745590873E+02   -0.43357E-02   -0.12284E+00  5736   0.280E+00    0.262E-01
DAV:   2    -0.921778737259E+02   -0.33146E-02   -0.36734E-02  6840   0.603E-01    0.147E-01
DAV:   3    -0.921780342931E+02   -0.16057E-03   -0.19746E-03  8480   0.167E-01    0.102E-01
DAV:   4    -0.921783897054E+02   -0.35541E-03   -0.15800E-03  6920   0.120E-01    0.175E-01
DAV:   5    -0.921780458819E+02    0.34382E-03   -0.13297E-03  6216   0.107E-01    0.458E-02
DAV:   6    -0.921780531204E+02   -0.72385E-05   -0.46874E-04  6072   0.971E-02    0.302E-02
DAV:   7    -0.921780183463E+02    0.34774E-04   -0.17632E-04  5168   0.630E-02    0.958E-03
DAV:   8    -0.921780165511E+02    0.17953E-05   -0.12259E-05  4112   0.194E-02
  12 F= -.95134130E+02 E0= -.95131914E+02  d E =-.117708E-01
       N       E                     dE             d eps       ncg     rms          rms(c)
DAV:   1    -0.921775109909E+02    0.50736E-03   -0.49199E+00  5744   0.560E+00    0.513E-01
DAV:   2    -0.921910493389E+02   -0.13538E-01   -0.15014E-01  6880   0.120E+00    0.290E-01
DAV:   3    -0.921916227464E+02   -0.57341E-03   -0.77283E-03  8696   0.331E-01    0.178E-01
DAV:   4    -0.921923454728E+02   -0.72273E-03   -0.35596E-03  7576   0.245E-01    0.231E-01
DAV:   5    -0.921918173655E+02    0.52811E-03   -0.30698E-03  7056   0.175E-01    0.118E-01
DAV:   6    -0.921918781216E+02   -0.60756E-04   -0.20180E-03  6480   0.174E-01    0.822E-02
DAV:   7    -0.921916506520E+02    0.22747E-03   -0.88574E-04  6120   0.129E-01    0.150E-02
DAV:   8    -0.921916508702E+02   -0.21821E-06   -0.40457E-05  5304   0.278E-02
  13 F= -.95145867E+02 E0= -.95143658E+02  d E =-.235078E-01
       N       E                     dE             d eps       ncg     rms          rms(c)
DAV:   1    -0.921492972930E+02    0.42353E-01   -0.19767E+01  5744   0.113E+01    0.103E+00
DAV:   2    -0.922083644863E+02   -0.59067E-01   -0.65099E-01  6808   0.248E+00    0.583E-01
DAV:   3    -0.922104248073E+02   -0.20603E-02   -0.32544E-02  8800   0.717E-01    0.375E-01
DAV:   4    -0.922140293018E+02   -0.36045E-02   -0.15111E-02  7720   0.430E-01    0.555E-01
DAV:   5    -0.922113728101E+02    0.26565E-02   -0.15719E-02  7112   0.303E-01    0.244E-01
DAV:   6    -0.922113921959E+02   -0.19386E-04   -0.97565E-03  6760   0.432E-01    0.139E-01
DAV:   7    -0.922105571796E+02    0.83502E-03   -0.35680E-03  6576   0.278E-01    0.338E-02
DAV:   8    -0.922105531990E+02    0.39806E-05   -0.16716E-04  6336   0.535E-02    0.216E-02
DAV:   9    -0.922105524537E+02    0.74526E-06   -0.32187E-05  5424   0.324E-02
  14 F= -.95161135E+02 E0= -.95158985E+02  d E =-.387759E-01
       N       E                     dE             d eps       ncg     rms          rms(c)
DAV:   1    -0.919879856098E+02    0.22257E+00   -0.81378E+01  5880   0.233E+01    0.215E+00
DAV:   2    -0.922039737683E+02   -0.21599E+00   -0.24051E+00  6952   0.493E+00    0.117E+00
DAV:   3    -0.922119514556E+02   -0.79777E-02   -0.13194E-01  8320   0.147E+00    0.846E-01
DAV:   4    -0.922342715118E+02   -0.22320E-01   -0.90461E-02  7480   0.107E+00    0.144E+00
DAV:   5    -0.922123422037E+02    0.21929E-01   -0.93130E-02  7592   0.851E-01    0.403E-01
DAV:   6    -0.922138183423E+02   -0.14761E-02   -0.27120E-02  7800   0.801E-01    0.259E-01
DAV:   7    -0.922112804321E+02    0.25379E-02   -0.12149E-02  7216   0.521E-01    0.934E-02
DAV:   8    -0.922112144633E+02    0.65969E-04   -0.90424E-04  7200   0.135E-01    0.643E-02
DAV:   9    -0.922112064526E+02    0.80107E-05   -0.22099E-04  6928   0.800E-02    0.323E-02
DAV:  10    -0.922112083391E+02   -0.18865E-05   -0.60796E-05  6184   0.436E-02
  15 F= -.95155190E+02 E0= -.95153383E+02  d E =-.328311E-01
       N       E                     dE             d eps       ncg     rms          rms(c)
DAV:   1    -0.921044261281E+02    0.10678E+00   -0.32189E+01  5744   0.145E+01    0.132E+00
DAV:   2    -0.922130875376E+02   -0.10866E+00   -0.11800E+00  6968   0.329E+00    0.743E-01
DAV:   3    -0.922194518309E+02   -0.63643E-02   -0.76769E-02  8136   0.138E+00    0.609E-01
DAV:   4    -0.922237057525E+02   -0.42539E-02   -0.62557E-02  7680   0.123E+00    0.732E-01
DAV:   5    -0.922175138513E+02    0.61919E-02   -0.24600E-02  8376   0.521E-01    0.288E-01
DAV:   6    -0.922176272299E+02   -0.11338E-03   -0.10401E-02  7480   0.438E-01    0.187E-01
DAV:   7    -0.922167782746E+02    0.84896E-03   -0.39123E-03  7696   0.313E-01    0.413E-02
DAV:   8    -0.922167965738E+02   -0.18299E-04   -0.34114E-04  7048   0.945E-02    0.273E-02
DAV:   9    -0.922167976830E+02   -0.11093E-05   -0.76901E-05  6624   0.477E-02
  16 F= -.95164885E+02 E0= -.95162828E+02  d E =-.425258E-01
       N       E                     dE             d eps       ncg     rms          rms(c)
DAV:   1    -0.922168132934E+02   -0.16720E-04   -0.69971E-02  5648   0.670E-01    0.596E-02
DAV:   2    -0.922170007218E+02   -0.18743E-03   -0.20793E-03  6864   0.150E-01    0.341E-02
DAV:   3    -0.922170060023E+02   -0.52805E-05   -0.96289E-05  7048   0.453E-02
  17 F= -.95164893E+02 E0= -.95162846E+02  d E =-.425339E-01
       N       E                     dE             d eps       ncg     rms          rms(c)
DAV:   1    -0.922176839001E+02   -0.68318E-03   -0.60071E-01  5744   0.191E+00    0.182E-01
DAV:   2    -0.922192659354E+02   -0.15820E-02   -0.17147E-02  6688   0.395E-01    0.142E-01
DAV:   3    -0.922196190483E+02   -0.35311E-03   -0.28774E-03  7456   0.172E-01    0.189E-01
DAV:   4    -0.922192382379E+02    0.38081E-03   -0.15067E-03  6472   0.136E-01    0.630E-02
DAV:   5    -0.922193154738E+02   -0.77236E-04   -0.95602E-04  6208   0.139E-01    0.527E-02
DAV:   6    -0.922192162916E+02    0.99182E-04   -0.49316E-04  5960   0.104E-01    0.136E-02
DAV:   7    -0.922192157201E+02    0.57151E-06   -0.25041E-05  5056   0.233E-02
  18 F= -.95166453E+02 E0= -.95164436E+02  d E =-.156028E-02
       N       E                     dE             d eps       ncg     rms          rms(c)
DAV:   1    -0.922085563131E+02    0.10660E-01   -0.54132E+00  5744   0.575E+00    0.521E-01
DAV:   2    -0.922226059975E+02   -0.14050E-01   -0.15769E-01  6968   0.118E+00    0.312E-01
DAV:   3    -0.922230897952E+02   -0.48380E-03   -0.79120E-03  7976   0.352E-01    0.185E-01
DAV:   4    -0.922239311302E+02   -0.84134E-03   -0.48354E-03  7312   0.349E-01    0.200E-01
DAV:   5    -0.922232034215E+02    0.72771E-03   -0.35076E-03  7808   0.273E-01    0.752E-02
DAV:   6    -0.922233670859E+02   -0.16366E-03   -0.97702E-04  6784   0.122E-01    0.974E-02
DAV:   7    -0.922231577190E+02    0.20937E-03   -0.66560E-04  6224   0.114E-01    0.146E-02
DAV:   8    -0.922231608240E+02   -0.31049E-05   -0.34333E-05  5272   0.229E-02
  19 F= -.95168486E+02 E0= -.95166567E+02  d E =-.359336E-02
       N       E                     dE             d eps       ncg     rms          rms(c)
DAV:   1    -0.922240908680E+02   -0.93315E-03   -0.17876E-01  5736   0.103E+00    0.957E-02
DAV:   2    -0.922245190206E+02   -0.42815E-03   -0.48427E-03  7096   0.209E-01    0.573E-02
DAV:   3    -0.922245423571E+02   -0.23336E-04   -0.26492E-04  7336   0.603E-02    0.410E-02
DAV:   4    -0.922245850365E+02   -0.42679E-04   -0.22893E-04  5872   0.470E-02    0.629E-02
DAV:   5    -0.922245502443E+02    0.34792E-04   -0.18077E-04  5248   0.400E-02    0.196E-02
DAV:   6    -0.922245429634E+02    0.72810E-05   -0.97271E-05  4656   0.452E-02
  20 F= -.95169508E+02 E0= -.95167619E+02  d E =-.102167E-02
       N       E                     dE             d eps       ncg     rms          rms(c)
DAV:   1    -0.922242537464E+02    0.29650E-03   -0.16079E+00  5728   0.310E+00    0.288E-01
DAV:   2    -0.922282056085E+02   -0.39519E-02   -0.44763E-02  6952   0.629E-01    0.171E-01
DAV:   3    -0.922283669268E+02   -0.16132E-03   -0.22945E-03  7848   0.196E-01    0.106E-01
DAV:   4    -0.922286742019E+02   -0.30728E-03   -0.16546E-03  7168   0.195E-01    0.136E-01
DAV:   5    -0.922284306159E+02    0.24359E-03   -0.10752E-03  6208   0.120E-01    0.561E-02
DAV:   6    -0.922284509151E+02   -0.20299E-04   -0.57400E-04  6176   0.999E-02    0.460E-02
DAV:   7    -0.922283912115E+02    0.59704E-04   -0.21574E-04  5640   0.721E-02    0.843E-03
DAV:   8    -0.922283922967E+02   -0.10852E-05   -0.12516E-05  4360   0.162E-02
  21 F= -.95172286E+02 E0= -.95170463E+02  d E =-.379994E-02
       N       E                     dE             d eps       ncg     rms          rms(c)
DAV:   1    -0.922172907186E+02    0.11100E-01   -0.64453E+00  5728   0.621E+00    0.579E-01
DAV:   2    -0.922339115120E+02   -0.16621E-01   -0.18739E-01  6752   0.127E+00    0.344E-01
DAV:   3    -0.922345395944E+02   -0.62808E-03   -0.93570E-03  8160   0.388E-01    0.226E-01
DAV:   4    -0.922361333556E+02   -0.15938E-02   -0.68985E-03  6872   0.318E-01    0.359E-01
DAV:   5    -0.922349047017E+02    0.12287E-02   -0.59916E-03  7624   0.199E-01    0.123E-01
DAV:   6    -0.922347628452E+02    0.14186E-03   -0.32887E-03  6800   0.269E-01    0.633E-02
DAV:   7    -0.922346026726E+02    0.16017E-03   -0.69665E-04  5880   0.133E-01    0.173E-02
DAV:   8    -0.922346039708E+02   -0.12982E-05   -0.41538E-05  5400   0.283E-02
  22 F= -.95176402E+02 E0= -.95174734E+02  d E =-.791604E-02
       N       E                     dE             d eps       ncg     rms          rms(c)
DAV:   1    -0.921637139785E+02    0.70889E-01   -0.25953E+01  5736   0.125E+01    0.119E+00
DAV:   2    -0.922382233699E+02   -0.74509E-01   -0.83162E-01  6992   0.266E+00    0.699E-01
DAV:   3    -0.922404216181E+02   -0.21982E-02   -0.38660E-02  8360   0.851E-01    0.505E-01
DAV:   4    -0.922481010134E+02   -0.76794E-02   -0.32397E-02  7352   0.615E-01    0.841E-01
DAV:   5    -0.922410755375E+02    0.70255E-02   -0.31387E-02  7488   0.573E-01    0.215E-01
DAV:   6    -0.922413338341E+02   -0.25830E-03   -0.14865E-02  7168   0.628E-01    0.146E-01
DAV:   7    -0.922403228773E+02    0.10110E-02   -0.41265E-03  6760   0.319E-01    0.344E-02
DAV:   8    -0.922403330440E+02   -0.10167E-04   -0.20562E-04  7376   0.717E-02    0.237E-02
DAV:   9    -0.922403348650E+02   -0.18210E-05   -0.38172E-05  5520   0.298E-02
  23 F= -.95178129E+02 E0= -.95176814E+02  d E =-.964258E-02
       N       E                     dE             d eps       ncg     rms          rms(c)
DAV:   1    -0.922302183538E+02    0.10115E-01   -0.33158E+00  5744   0.445E+00    0.411E-01
DAV:   2    -0.922390946903E+02   -0.88763E-02   -0.98900E-02  6912   0.910E-01    0.242E-01
DAV:   3    -0.922393917097E+02   -0.29702E-03   -0.50335E-03  8272   0.305E-01    0.148E-01
DAV:   4    -0.922402292049E+02   -0.83750E-03   -0.49880E-03  7440   0.344E-01    0.175E-01
DAV:   5    -0.922395639320E+02    0.66527E-03   -0.38653E-03  6848   0.249E-01    0.105E-01
DAV:   6    -0.922395363492E+02    0.27583E-04   -0.86083E-04  6608   0.950E-02    0.733E-02
DAV:   7    -0.922394464320E+02    0.89917E-04   -0.31330E-04  6280   0.839E-02    0.166E-02
DAV:   8    -0.922394464242E+02    0.77562E-08   -0.26575E-05  5160   0.223E-02
  24 F= -.95178649E+02 E0= -.95177202E+02  d E =-.101626E-01
       N       E                     dE             d eps       ncg     rms          rms(c)
DAV:   1    -0.922367165639E+02    0.27299E-02   -0.27986E+00  5728   0.405E+00    0.374E-01
DAV:   2    -0.922436663908E+02   -0.69498E-02   -0.78055E-02  6864   0.823E-01    0.223E-01
DAV:   3    -0.922439128717E+02   -0.24648E-03   -0.39480E-03  8104   0.244E-01    0.139E-01
DAV:   4    -0.922444939319E+02   -0.58106E-03   -0.22905E-03  6744   0.195E-01    0.205E-01
DAV:   5    -0.922440782624E+02    0.41567E-03   -0.21318E-03  7064   0.119E-01    0.789E-02
DAV:   6    -0.922440838951E+02   -0.56327E-05   -0.12408E-03  5992   0.159E-01    0.472E-02
DAV:   7    -0.922439821446E+02    0.10175E-03   -0.40527E-04  5816   0.967E-02    0.103E-02
DAV:   8    -0.922439831804E+02   -0.10358E-05   -0.15562E-05  4688   0.165E-02
  25 F= -.95181843E+02 E0= -.95180508E+02  d E =-.319370E-02
       N       E                     dE             d eps       ncg     rms          rms(c)
DAV:   1    -0.921813031054E+02    0.62679E-01   -0.25427E+01  5736   0.123E+01    0.113E+00
DAV:   2    -0.922521361411E+02   -0.70833E-01   -0.78349E-01  6952   0.259E+00    0.682E-01
DAV:   3    -0.922544799731E+02   -0.23438E-02   -0.37932E-02  8504   0.826E-01    0.485E-01
DAV:   4    -0.922620476243E+02   -0.75677E-02   -0.34067E-02  7264   0.593E-01    0.825E-01
DAV:   5    -0.922547286944E+02    0.73189E-02   -0.30240E-02  7520   0.566E-01    0.171E-01
DAV:   6    -0.922548904266E+02   -0.16173E-03   -0.11657E-02  7192   0.540E-01    0.126E-01
DAV:   7    -0.922541516382E+02    0.73879E-03   -0.31203E-03  6528   0.272E-01    0.342E-02
DAV:   8    -0.922541548021E+02   -0.31638E-05   -0.19386E-04  6976   0.590E-02    0.233E-02
DAV:   9    -0.922541547622E+02    0.39898E-07   -0.34232E-05  5528   0.275E-02
  26 F= -.95188139E+02 E0= -.95187162E+02  d E =-.948991E-02
       N       E                     dE             d eps       ncg     rms          rms(c)
DAV:   1    -0.920204657011E+02    0.23369E+00   -0.10562E+02  5912   0.253E+01    0.246E+00
DAV:   2    -0.922563061382E+02   -0.23584E+00   -0.26626E+00  6888   0.502E+00    0.140E+00
DAV:   3    -0.922683675610E+02   -0.12061E-01   -0.17520E-01  8432   0.186E+00    0.116E+00
DAV:   4    -0.922883967492E+02   -0.20029E-01   -0.15184E-01  8360   0.167E+00    0.155E+00
DAV:   5    -0.922615967135E+02    0.26800E-01   -0.96967E-02  7344   0.109E+00    0.295E-01
DAV:   6    -0.922623229597E+02   -0.72625E-03   -0.98602E-03  7544   0.541E-01    0.110E-01
DAV:   7    -0.922620534393E+02    0.26952E-03   -0.38783E-03  7544   0.330E-01    0.819E-02
DAV:   8    -0.922619486214E+02    0.10482E-03   -0.68336E-04  7224   0.130E-01    0.489E-02
DAV:   9    -0.922619567316E+02   -0.81102E-05   -0.22169E-04  7376   0.704E-02    0.241E-02
DAV:  10    -0.922619588123E+02   -0.20806E-05   -0.45534E-05  5664   0.387E-02
  27 F= -.95188855E+02 E0= -.95188646E+02  d E =-.102058E-01
       N       E                     dE             d eps       ncg     rms          rms(c)
DAV:   1    -0.922075917506E+02    0.54365E-01   -0.17841E+01  5744   0.102E+01    0.978E-01
DAV:   2    -0.922588822236E+02   -0.51290E-01   -0.56896E-01  7048   0.216E+00    0.564E-01
DAV:   3    -0.922604090944E+02   -0.15269E-02   -0.25425E-02  8480   0.696E-01    0.385E-01
DAV:   4    -0.922668960145E+02   -0.64869E-02   -0.31011E-02  7640   0.794E-01    0.639E-01
DAV:   5    -0.922605788241E+02    0.63172E-02   -0.21196E-02  7528   0.480E-01    0.151E-01
DAV:   6    -0.922607971842E+02   -0.21836E-03   -0.33664E-03  7176   0.262E-01    0.108E-01
DAV:   7    -0.922604302864E+02    0.36690E-03   -0.17624E-03  6728   0.223E-01    0.358E-02
DAV:   8    -0.922604330333E+02   -0.27469E-05   -0.15782E-04  7072   0.571E-02    0.211E-02
DAV:   9    -0.922604336328E+02   -0.59950E-06   -0.24970E-05  5168   0.279E-02
  28 F= -.95190201E+02 E0= -.95189664E+02  d E =-.115523E-01
       N       E                     dE             d eps       ncg     rms          rms(c)
DAV:   1    -0.922648989094E+02   -0.44659E-02   -0.45084E-01  5744   0.174E+00    0.164E-01
DAV:   2    -0.922660500052E+02   -0.11511E-02   -0.12988E-02  6976   0.390E-01    0.942E-02
DAV:   3    -0.922661167856E+02   -0.66780E-04   -0.83060E-04  7944   0.118E-01    0.766E-02
DAV:   4    -0.922661805041E+02   -0.63718E-04   -0.62861E-04  6536   0.758E-02    0.928E-02
DAV:   5    -0.922661244663E+02    0.56038E-04   -0.49678E-04  5784   0.827E-02    0.352E-02
DAV:   6    -0.922660927369E+02    0.31729E-04   -0.29713E-04  5256   0.850E-02    0.163E-02
DAV:   7    -0.922660864315E+02    0.63055E-05   -0.54583E-05  4560   0.382E-02
  29 F= -.95195296E+02 E0= -.95194779E+02  d E =-.509497E-02
       N       E                     dE             d eps       ncg     rms          rms(c)
DAV:   1    -0.922694803827E+02   -0.33876E-02   -0.40652E+00  5736   0.523E+00    0.495E-01
DAV:   2    -0.922802955258E+02   -0.10815E-01   -0.12147E-01  7000   0.118E+00    0.286E-01
DAV:   3    -0.922810980424E+02   -0.80252E-03   -0.84125E-03  8096   0.364E-01    0.266E-01
DAV:   4    -0.922812593099E+02   -0.16127E-03   -0.57764E-03  7664   0.218E-01    0.258E-01
DAV:   5    -0.922810385689E+02    0.22074E-03   -0.46327E-03  6536   0.279E-01    0.109E-01
DAV:   6    -0.922806863171E+02    0.35225E-03   -0.31119E-03  6752   0.300E-01    0.522E-02
DAV:   7    -0.922806264147E+02    0.59902E-04   -0.43736E-04  6168   0.103E-01    0.240E-02
DAV:   8    -0.922806169829E+02    0.94318E-05   -0.57194E-05  5936   0.345E-02
  30 F= -.95208177E+02 E0= -.95207698E+02  d E =-.179755E-01
       N       E                     dE             d eps       ncg     rms          rms(c)
DAV:   1    -0.922505647665E+02    0.30062E-01   -0.16331E+01  5760   0.105E+01    0.100E+00
DAV:   2    -0.922967347415E+02   -0.46170E-01   -0.51611E-01  7032   0.241E+00    0.585E-01
DAV:   3    -0.923003266682E+02   -0.35919E-02   -0.36874E-02  8256   0.795E-01    0.582E-01
DAV:   4    -0.922999902796E+02    0.33639E-03   -0.23583E-02  7608   0.446E-01    0.503E-01
DAV:   5    -0.922994064002E+02    0.58388E-03   -0.18440E-02  7872   0.591E-01    0.221E-01
DAV:   6    -0.922981669214E+02    0.12395E-02   -0.13431E-02  7128   0.655E-01    0.121E-01
DAV:   7    -0.922978318261E+02    0.33510E-03   -0.20616E-03  7240   0.225E-01    0.479E-02
DAV:   8    -0.922978018537E+02    0.29972E-04   -0.24525E-04  7120   0.685E-02    0.193E-02
DAV:   9    -0.922978038631E+02   -0.20094E-05   -0.23604E-05  5032   0.229E-02
  31 F= -.95222169E+02 E0= -.95221707E+02  d E =-.319674E-01
       N       E                     dE             d eps       ncg     rms          rms(c)
DAV:   1    -0.923008280002E+02   -0.30261E-02   -0.12735E-01  5808   0.931E-01    0.890E-02
DAV:   2    -0.923011560550E+02   -0.32805E-03   -0.38208E-03  7256   0.207E-01    0.515E-02
DAV:   3    -0.923011721204E+02   -0.16065E-04   -0.22470E-04  7312   0.591E-02    0.378E-02
DAV:   4    -0.923012064530E+02   -0.34333E-04   -0.17768E-04  5904   0.427E-02    0.547E-02
DAV:   5    -0.923011847969E+02    0.21656E-04   -0.14403E-04  5208   0.392E-02    0.184E-02
DAV:   6    -0.923011785894E+02    0.62075E-05   -0.85096E-05  4576   0.483E-02
  32 F= -.95225281E+02 E0= -.95224813E+02  d E =-.311219E-02
       N       E                     dE             d eps       ncg     rms          rms(c)
DAV:   1    -0.923062469228E+02   -0.50621E-02   -0.11451E+00  5768   0.279E+00    0.266E-01
DAV:   2    -0.923091826996E+02   -0.29358E-02   -0.33725E-02  6952   0.616E-01    0.155E-01
DAV:   3    -0.923094090264E+02   -0.22633E-03   -0.25302E-03  8272   0.185E-01    0.142E-01
DAV:   4    -0.923094875587E+02   -0.78532E-04   -0.18350E-03  7000   0.119E-01    0.144E-01
DAV:   5    -0.923093660848E+02    0.12147E-03   -0.12620E-03  6224   0.152E-01    0.512E-02
DAV:   6    -0.923093119780E+02    0.54107E-04   -0.73147E-04  5960   0.144E-01    0.292E-02
DAV:   7    -0.923092937977E+02    0.18180E-04   -0.16149E-04  5544   0.636E-02    0.144E-02
DAV:   8    -0.923092893865E+02    0.44112E-05   -0.17080E-05  4296   0.229E-02
  33 F= -.95232610E+02 E0= -.95232113E+02  d E =-.104417E-01
       N       E                     dE             d eps       ncg     rms          rms(c)
DAV:   1    -0.923043403026E+02    0.49535E-02   -0.45928E+00  5768   0.558E+00    0.528E-01
DAV:   2    -0.923163945425E+02   -0.12054E-01   -0.13690E-01  6904   0.124E+00    0.311E-01
DAV:   3    -0.923174446001E+02   -0.10501E-02   -0.10684E-02  8032   0.390E-01    0.308E-01
DAV:   4    -0.923173855192E+02    0.59081E-04   -0.74397E-03  7680   0.241E-01    0.267E-01
DAV:   5    -0.923171200931E+02    0.26543E-03   -0.52918E-03  6504   0.325E-01    0.106E-01
DAV:   6    -0.923167729257E+02    0.34717E-03   -0.32421E-03  6792   0.312E-01    0.549E-02
DAV:   7    -0.923167197424E+02    0.53183E-04   -0.44385E-04  6392   0.107E-01    0.261E-02
DAV:   8    -0.923167094348E+02    0.10308E-04   -0.69753E-05  6392   0.387E-02    0.848E-03
DAV:   9    -0.923167108685E+02   -0.14337E-05   -0.57562E-06  3672   0.153E-02
  34 F= -.95238498E+02 E0= -.95237938E+02  d E =-.163291E-01
       N       E                     dE             d eps       ncg     rms          rms(c)
DAV:   1    -0.923179113382E+02   -0.12019E-02   -0.29046E-01  5736   0.145E+00    0.130E-01
DAV:   2    -0.923186839268E+02   -0.77259E-03   -0.87192E-03  6992   0.316E-01    0.762E-02
DAV:   3    -0.923187704543E+02   -0.86527E-04   -0.67051E-04  7632   0.922E-02    0.806E-02
DAV:   4    -0.923187505099E+02    0.19944E-04   -0.47197E-04  5992   0.617E-02    0.609E-02
DAV:   5    -0.923187434752E+02    0.70347E-05   -0.30420E-04  5264   0.836E-02    0.239E-02
DAV:   6    -0.923187207633E+02    0.22712E-04   -0.17475E-04  4984   0.727E-02    0.110E-02
DAV:   7    -0.923187196762E+02    0.10872E-05   -0.17608E-05  4192   0.227E-02
  35 F= -.95240114E+02 E0= -.95239536E+02  d E =-.161634E-02
       N       E                     dE             d eps       ncg     rms          rms(c)
DAV:   1    -0.923164701798E+02    0.22506E-02   -0.26176E+00  5736   0.435E+00    0.391E-01
DAV:   2    -0.923233790201E+02   -0.69088E-02   -0.78069E-02  6896   0.946E-01    0.229E-01
DAV:   3    -0.923242847764E+02   -0.90576E-03   -0.68805E-03  8472   0.296E-01    0.259E-01
DAV:   4    -0.923239247817E+02    0.35999E-03   -0.43018E-03  7296   0.196E-01    0.171E-01
DAV:   5    -0.923239441101E+02   -0.19328E-04   -0.27523E-03  6728   0.255E-01    0.742E-02
DAV:   6    -0.923237052389E+02    0.23887E-03   -0.16072E-03  6216   0.221E-01    0.319E-02
DAV:   7    -0.923236927577E+02    0.12481E-04   -0.15689E-04  6216   0.607E-02    0.177E-02
DAV:   8    -0.923236882892E+02    0.44685E-05   -0.23310E-05  4816   0.251E-02
  36 F= -.95243919E+02 E0= -.95243282E+02  d E =-.542111E-02
       N       E                     dE             d eps       ncg     rms          rms(c)
DAV:   1    -0.922980931047E+02    0.25600E-01   -0.10508E+01  5728   0.872E+00    0.792E-01
DAV:   2    -0.923274144543E+02   -0.29321E-01   -0.32959E-01  7016   0.193E+00    0.469E-01
DAV:   3    -0.923310336472E+02   -0.36192E-02   -0.27554E-02  8352   0.607E-01    0.548E-01
DAV:   4    -0.923289905980E+02    0.20430E-02   -0.17345E-02  7432   0.414E-01    0.336E-01
DAV:   5    -0.923293894184E+02   -0.39882E-03   -0.11255E-02  7344   0.531E-01    0.158E-01
DAV:   6    -0.923283811889E+02    0.10082E-02   -0.72090E-03  7192   0.451E-01    0.730E-02
DAV:   7    -0.923282981328E+02    0.83056E-04   -0.72104E-04  7440   0.130E-01    0.360E-02
DAV:   8    -0.923282845197E+02    0.13613E-04   -0.11183E-04  6832   0.484E-02    0.166E-02
DAV:   9    -0.923282866727E+02   -0.21530E-05   -0.10261E-05  4088   0.168E-02
  37 F= -.95246251E+02 E0= -.95245474E+02  d E =-.775278E-02
       N       E                     dE             d eps       ncg     rms          rms(c)
DAV:   1    -0.923267803693E+02    0.15042E-02   -0.41918E-01  5712   0.174E+00    0.159E-01
DAV:   2    -0.923279401433E+02   -0.11598E-02   -0.12900E-02  6880   0.380E-01    0.920E-02
DAV:   3    -0.923280436869E+02   -0.10354E-03   -0.92182E-04  8088   0.122E-01    0.943E-02
DAV:   4    -0.923280310180E+02    0.12669E-04   -0.66592E-04  6352   0.714E-02    0.765E-02
DAV:   5    -0.923280149599E+02    0.16058E-04   -0.46493E-04  5632   0.107E-01    0.320E-02
DAV:   6    -0.923279808952E+02    0.34065E-04   -0.29782E-04  5296   0.889E-02    0.156E-02
DAV:   7    -0.923279754854E+02    0.54098E-05   -0.34388E-05  4496   0.320E-02
  38 F= -.95246387E+02 E0= -.95245637E+02  d E =-.788890E-02
       N       E                     dE             d eps       ncg     rms          rms(c)
DAV:   1    -0.923295345651E+02   -0.15537E-02   -0.10578E-01  5624   0.984E-01    0.787E-02
DAV:   2    -0.923299222075E+02   -0.38764E-03   -0.42731E-03  6992   0.212E-01    0.506E-02
DAV:   3    -0.923299822205E+02   -0.60013E-04   -0.45103E-04  7048   0.989E-02    0.657E-02
DAV:   4    -0.923299282708E+02    0.53950E-04   -0.26630E-04  5464   0.703E-02    0.299E-02
DAV:   5    -0.923299274291E+02    0.84171E-06   -0.28783E-05  4664   0.232E-02
  39 F= -.95248157E+02 E0= -.95247401E+02  d E =-.176980E-02
       N       E                     dE             d eps       ncg     rms          rms(c)
DAV:   1    -0.923320606724E+02   -0.21324E-02   -0.95494E-01  5640   0.295E+00    0.234E-01
DAV:   2    -0.923354527587E+02   -0.33921E-02   -0.37497E-02  6536   0.636E-01    0.146E-01
DAV:   3    -0.923361320886E+02   -0.67933E-03   -0.53197E-03  8040   0.369E-01    0.196E-01
DAV:   4    -0.923355476610E+02    0.58443E-03   -0.27139E-03  7216   0.234E-01    0.868E-02
DAV:   5    -0.923356276496E+02   -0.79989E-04   -0.55867E-04  6472   0.117E-01    0.640E-02
DAV:   6    -0.923355458433E+02    0.81806E-04   -0.55111E-04  6328   0.119E-01    0.222E-02
DAV:   7    -0.923355406203E+02    0.52230E-05   -0.70765E-05  6192   0.444E-02
  40 F= -.95253226E+02 E0= -.95252453E+02  d E =-.683967E-02
       N       E                     dE             d eps       ncg     rms          rms(c)
DAV:   1    -0.923319384368E+02    0.36074E-02   -0.38323E+00  5656   0.591E+00    0.461E-01
DAV:   2    -0.923454331926E+02   -0.13495E-01   -0.14897E-01  6616   0.125E+00    0.296E-01
DAV:   3    -0.923481912256E+02   -0.27580E-02   -0.19374E-02  8344   0.647E-01    0.421E-01
DAV:   4    -0.923457897745E+02    0.24015E-02   -0.99342E-03  7640   0.417E-01    0.158E-01
DAV:   5    -0.923458527326E+02   -0.62958E-04   -0.94722E-04  8024   0.128E-01    0.579E-02
DAV:   6    -0.923458679975E+02   -0.15265E-04   -0.65766E-04  6696   0.155E-01    0.389E-02
DAV:   7    -0.923458303825E+02    0.37615E-04   -0.30847E-04  5944   0.977E-02    0.181E-02
DAV:   8    -0.923458250748E+02    0.53077E-05   -0.46777E-05  4952   0.389E-02
  41 F= -.95262438E+02 E0= -.95261638E+02  d E =-.160509E-01
       N       E                     dE             d eps       ncg     rms          rms(c)
DAV:   1    -0.923062216809E+02    0.39609E-01   -0.15405E+01  5672   0.118E+01    0.923E-01
DAV:   2    -0.923619456411E+02   -0.55724E-01   -0.60884E-01  6696   0.254E+00    0.623E-01
DAV:   3    -0.923731809797E+02   -0.11235E-01   -0.84362E-02  8472   0.127E+00    0.882E-01
DAV:   4    -0.923623064976E+02    0.10874E-01   -0.38465E-02  7736   0.825E-01    0.309E-01
DAV:   5    -0.923626726120E+02   -0.36611E-03   -0.35307E-03  7632   0.234E-01    0.118E-01
DAV:   6    -0.923626769881E+02   -0.43761E-05   -0.12606E-03  7416   0.192E-01    0.586E-02
DAV:   7    -0.923626271895E+02    0.49799E-04   -0.27415E-04  7128   0.826E-02    0.251E-02
DAV:   8    -0.923626317982E+02   -0.46086E-05   -0.48628E-05  5552   0.323E-02
  42 F= -.95277147E+02 E0= -.95276309E+02  d E =-.307601E-01
       N       E                     dE             d eps       ncg     rms          rms(c)
DAV:   1    -0.921359008718E+02    0.22673E+00   -0.62135E+01  5640   0.237E+01    0.196E+00
DAV:   2    -0.923786956866E+02   -0.24279E+00   -0.26022E+00  6928   0.535E+00    0.140E+00
DAV:   3    -0.924282193976E+02   -0.49524E-01   -0.43917E-01  7864   0.279E+00    0.192E+00
DAV:   4    -0.923747082716E+02    0.53511E-01   -0.15479E-01  8008   0.184E+00    0.692E-01
DAV:   5    -0.923786817050E+02   -0.39734E-02   -0.24222E-02  7760   0.649E-01    0.438E-01
DAV:   6    -0.923777219065E+02    0.95980E-03   -0.26263E-02  7480   0.900E-01    0.210E-01
DAV:   7    -0.923764784381E+02    0.12435E-02   -0.90067E-03  7840   0.492E-01    0.962E-02
DAV:   8    -0.923763462210E+02    0.13222E-03   -0.97726E-04  7272   0.161E-01    0.452E-02
DAV:   9    -0.923763519113E+02   -0.56903E-05   -0.22505E-04  6912   0.894E-02    0.233E-02
DAV:  10    -0.923763709207E+02   -0.19009E-04   -0.50183E-05  5912   0.403E-02    0.750E-03
DAV:  11    -0.923763822507E+02   -0.11330E-04   -0.85246E-06  3864   0.159E-02    0.364E-03
DAV:  12    -0.923763908772E+02   -0.86265E-05   -0.31916E-06  3656   0.115E-02
  43 F= -.95286870E+02 E0= -.95286038E+02  d E =-.404835E-01
       N       E                     dE             d eps       ncg     rms          rms(c)
DAV:   1    -0.923776974728E+02   -0.13152E-02   -0.14810E-01  5632   0.114E+00    0.893E-02
DAV:   2    -0.923782004790E+02   -0.50301E-03   -0.56386E-03  7008   0.239E-01    0.563E-02
DAV:   3    -0.923782749221E+02   -0.74443E-04   -0.55045E-04  7096   0.111E-01    0.691E-02
DAV:   4    -0.923782223385E+02    0.52584E-04   -0.33840E-04  5872   0.777E-02    0.373E-02
DAV:   5    -0.923782233849E+02   -0.10463E-05   -0.47336E-05  5152   0.260E-02
  44 F= -.95288530E+02 E0= -.95287698E+02  d E =-.165934E-02
       N       E                     dE             d eps       ncg     rms          rms(c)
DAV:   1    -0.923775815359E+02    0.64080E-03   -0.13356E+00  5608   0.341E+00    0.269E-01
DAV:   2    -0.923820509234E+02   -0.44694E-02   -0.50443E-02  6568   0.735E-01    0.166E-01
DAV:   3    -0.923828395200E+02   -0.78860E-03   -0.67508E-03  8000   0.448E-01    0.201E-01
DAV:   4    -0.923822591318E+02    0.58039E-03   -0.35501E-03  7480   0.274E-01    0.113E-01
DAV:   5    -0.923823837108E+02   -0.12458E-03   -0.97619E-04  6360   0.132E-01    0.935E-02
DAV:   6    -0.923822292225E+02    0.15449E-03   -0.81733E-04  6792   0.140E-01    0.260E-02
DAV:   7    -0.923822276644E+02    0.15581E-05   -0.88732E-05  6688   0.453E-02
  45 F= -.95292015E+02 E0= -.95291187E+02  d E =-.514496E-02
       N       E                     dE             d eps       ncg     rms          rms(c)
DAV:   1    -0.923659080758E+02    0.16321E-01   -0.53604E+00  5672   0.681E+00    0.523E-01
DAV:   2    -0.923838289996E+02   -0.17921E-01   -0.19973E-01  6616   0.143E+00    0.337E-01
DAV:   3    -0.923869673125E+02   -0.31383E-02   -0.23221E-02  8296   0.720E-01    0.449E-01
DAV:   4    -0.923844151273E+02    0.25522E-02   -0.12861E-02  7856   0.457E-01    0.196E-01
DAV:   5    -0.923844144787E+02    0.64867E-06   -0.15039E-03  7648   0.154E-01    0.730E-02
DAV:   6    -0.923844103687E+02    0.41100E-05   -0.13009E-03  7096   0.205E-01    0.523E-02
DAV:   7    -0.923843438806E+02    0.66488E-04   -0.45832E-04  6168   0.113E-01    0.222E-02
DAV:   8    -0.923843386337E+02    0.52469E-05   -0.61310E-05  6256   0.403E-02
  46 F= -.95293090E+02 E0= -.95292282E+02  d E =-.621988E-02
       N       E                     dE             d eps       ncg     rms          rms(c)
DAV:   1    -0.923821599875E+02    0.21839E-02   -0.65514E-01  5712   0.238E+00    0.191E-01
DAV:   2    -0.923843477088E+02   -0.21877E-02   -0.24706E-02  6632   0.494E-01    0.115E-01
DAV:   3    -0.923846109174E+02   -0.26321E-03   -0.22598E-03  8064   0.216E-01    0.131E-01
DAV:   4    -0.923844777071E+02    0.13321E-03   -0.13849E-03  6856   0.153E-01    0.855E-02
DAV:   5    -0.923844460628E+02    0.31644E-04   -0.23537E-04  6248   0.539E-02    0.312E-02
DAV:   6    -0.923844487415E+02   -0.26787E-05   -0.19873E-04  5728   0.812E-02    0.215E-02
DAV:   7    -0.923844372568E+02    0.11485E-04   -0.77612E-05  4808   0.460E-02    0.806E-03
DAV:   8    -0.923844360102E+02    0.12466E-05   -0.79373E-06  3792   0.164E-02
  47 F= -.95293551E+02 E0= -.95292733E+02  d E =-.668058E-02
       N       E                     dE             d eps       ncg     rms          rms(c)
DAV:   1    -0.923846748788E+02   -0.23762E-03   -0.27170E-03  5840   0.162E-01    0.119E-02
DAV:   2    -0.923846870962E+02   -0.12217E-04   -0.13157E-04  6112   0.400E-02    0.794E-03
DAV:   3    -0.923846876960E+02   -0.59980E-06   -0.56569E-06  3520   0.115E-02
  48 F= -.95293822E+02 E0= -.95293002E+02  d E =-.271553E-03
       N       E                     dE             d eps       ncg     rms          rms(c)
DAV:   1    -0.923853260662E+02   -0.63897E-03   -0.24727E-02  5744   0.484E-01    0.366E-02
DAV:   2    -0.923854287474E+02   -0.10268E-03   -0.10945E-03  6736   0.110E-01    0.310E-02
DAV:   3    -0.923854413352E+02   -0.12588E-04   -0.15891E-04  5992   0.556E-02    0.362E-02
DAV:   4    -0.923854259853E+02    0.15350E-04   -0.61982E-05  4848   0.322E-02    0.137E-02
DAV:   5    -0.923854266688E+02   -0.68348E-06   -0.57715E-06  3256   0.118E-02
  49 F= -.95294621E+02 E0= -.95293798E+02  d E =-.107022E-02
       N       E                     dE             d eps       ncg     rms          rms(c)
DAV:   1    -0.923864383429E+02   -0.10124E-02   -0.98640E-02  5744   0.967E-01    0.701E-02
DAV:   2    -0.923868291358E+02   -0.39079E-03   -0.43021E-03  6992   0.216E-01    0.439E-02
DAV:   3    -0.923868458664E+02   -0.16731E-04   -0.28178E-04  6888   0.889E-02    0.311E-02
DAV:   4    -0.923868515455E+02   -0.56791E-05   -0.19210E-04  5368   0.757E-02    0.261E-02
DAV:   5    -0.923868553774E+02   -0.38319E-05   -0.11937E-04  4992   0.471E-02    0.357E-02
DAV:   6    -0.923868400458E+02    0.15332E-04   -0.54188E-05  4896   0.218E-02    0.831E-03
DAV:   7    -0.923868400373E+02    0.84292E-08   -0.50083E-06  3240   0.124E-02
  50 F= -.95296154E+02 E0= -.95295321E+02  d E =-.260325E-02
       N       E                     dE             d eps       ncg     rms          rms(c)
DAV:   1    -0.923878215050E+02   -0.98146E-03   -0.39507E-01  5744   0.193E+00    0.139E-01
DAV:   2    -0.923893559645E+02   -0.15345E-02   -0.16924E-02  6792   0.418E-01    0.855E-02
DAV:   3    -0.923894088275E+02   -0.52863E-04   -0.90273E-04  7680   0.125E-01    0.545E-02
DAV:   4    -0.923894960821E+02   -0.87255E-04   -0.62645E-04  6720   0.139E-01    0.501E-02
DAV:   5    -0.923894305817E+02    0.65500E-04   -0.48194E-04  5832   0.109E-01    0.399E-02
DAV:   6    -0.923894235723E+02    0.70093E-05   -0.12716E-04  5456   0.301E-02    0.290E-02
DAV:   7    -0.923894139854E+02    0.95869E-05   -0.29759E-05  4776   0.194E-02
  51 F= -.95298969E+02 E0= -.95298116E+02  d E =-.541786E-02
       N       E                     dE             d eps       ncg     rms          rms(c)
DAV:   1    -0.923871006006E+02    0.23230E-02   -0.15824E+00  5744   0.386E+00    0.278E-01
DAV:   2    -0.923932070093E+02   -0.61064E-02   -0.67452E-02  6632   0.837E-01    0.170E-01
DAV:   3    -0.923934409334E+02   -0.23392E-03   -0.38033E-03  8304   0.248E-01    0.112E-01
DAV:   4    -0.923937088776E+02   -0.26794E-03   -0.19764E-03  7400   0.242E-01    0.111E-01
DAV:   5    -0.923934550028E+02    0.25387E-03   -0.11015E-03  6248   0.169E-01    0.396E-02
DAV:   6    -0.923935136741E+02   -0.58671E-04   -0.26850E-04  6352   0.611E-02    0.570E-02
DAV:   7    -0.923934567987E+02    0.56875E-04   -0.19094E-04  5576   0.626E-02    0.101E-02
DAV:   8    -0.923934574379E+02   -0.63922E-06   -0.11840E-05  4320   0.154E-02
  52 F= -.95303498E+02 E0= -.95302602E+02  d E =-.994754E-02
       N       E                     dE             d eps       ncg     rms          rms(c)
DAV:   1    -0.923711153580E+02    0.22341E-01   -0.63468E+00  5744   0.772E+00    0.554E-01
DAV:   2    -0.923958885003E+02   -0.24773E-01   -0.27369E-01  6736   0.168E+00    0.343E-01
DAV:   3    -0.923969269106E+02   -0.10384E-02   -0.15473E-02  8600   0.473E-01    0.260E-01
DAV:   4    -0.923981196644E+02   -0.11928E-02   -0.74076E-03  7080   0.318E-01    0.348E-01
DAV:   5    -0.923973857097E+02    0.73395E-03   -0.66584E-03  6904   0.246E-01    0.156E-01
DAV:   6    -0.923969035313E+02    0.48218E-03   -0.42561E-03  6856   0.337E-01    0.634E-02
DAV:   7    -0.923968201453E+02    0.83386E-04   -0.49663E-04  6432   0.110E-01    0.185E-02
DAV:   8    -0.923968237828E+02   -0.36375E-05   -0.60276E-05  6016   0.318E-02
  53 F= -.95307855E+02 E0= -.95306861E+02  d E =-.143039E-01
       N       E                     dE             d eps       ncg     rms          rms(c)
DAV:   1    -0.923972470529E+02   -0.42691E-03   -0.98973E-03  5856   0.303E-01    0.250E-02
DAV:   2    -0.923972890817E+02   -0.42029E-04   -0.46083E-04  6752   0.742E-02    0.155E-02
DAV:   3    -0.923972918870E+02   -0.28052E-05   -0.29859E-05  5104   0.280E-02
  54 F= -.95308364E+02 E0= -.95307370E+02  d E =-.509176E-03
       N       E                     dE             d eps       ncg     rms          rms(c)
DAV:   1    -0.923981794904E+02   -0.89041E-03   -0.88475E-02  5720   0.901E-01    0.713E-02
DAV:   2    -0.923985375654E+02   -0.35807E-03   -0.38338E-03  6976   0.209E-01    0.652E-02
DAV:   3    -0.923985739648E+02   -0.36399E-04   -0.62427E-04  7088   0.105E-01    0.721E-02
DAV:   4    -0.923985135470E+02    0.60418E-04   -0.19858E-04  5720   0.554E-02    0.257E-02
DAV:   5    -0.923985196799E+02   -0.61329E-05   -0.33447E-05  5064   0.303E-02
  55 F= -.95309715E+02 E0= -.95308701E+02  d E =-.186024E-02
       N       E                     dE             d eps       ncg     rms          rms(c)
DAV:   1    -0.923988532718E+02   -0.33972E-03   -0.35333E-01  5744   0.180E+00    0.135E-01
DAV:   2    -0.924001651206E+02   -0.13118E-02   -0.14791E-02  6576   0.400E-01    0.849E-02
DAV:   3    -0.924002546102E+02   -0.89490E-04   -0.14647E-03  7752   0.206E-01    0.671E-02
DAV:   4    -0.924002255765E+02    0.29034E-04   -0.77838E-04  7040   0.145E-01    0.521E-02
DAV:   5    -0.924002847152E+02   -0.59139E-04   -0.46297E-04  6488   0.711E-02    0.833E-02
DAV:   6    -0.924002004404E+02    0.84275E-04   -0.25196E-04  6144   0.432E-02    0.147E-02
DAV:   7    -0.924002016868E+02   -0.12465E-05   -0.16964E-05  4440   0.181E-02
  56 F= -.95311644E+02 E0= -.95310605E+02  d E =-.378899E-02
       N       E                     dE             d eps       ncg     rms          rms(c)
DAV:   1    -0.923952462701E+02    0.49542E-02   -0.14146E+00  5760   0.359E+00    0.266E-01
DAV:   2    -0.924004021580E+02   -0.51559E-02   -0.58266E-02  6648   0.774E-01    0.164E-01
DAV:   3    -0.924005792847E+02   -0.17713E-03   -0.34625E-03  8272   0.238E-01    0.107E-01
DAV:   4    -0.924008839947E+02   -0.30471E-03   -0.24698E-03  7600   0.260E-01    0.976E-02
DAV:   5    -0.924006550369E+02    0.22896E-03   -0.18196E-03  6304   0.208E-01    0.806E-02
DAV:   6    -0.924006201027E+02    0.34934E-04   -0.49169E-04  6504   0.574E-02    0.557E-02
DAV:   7    -0.924005852552E+02    0.34847E-04   -0.10547E-04  5608   0.334E-02    0.101E-02
DAV:   8    -0.924005860156E+02   -0.76037E-06   -0.84786E-06  4120   0.142E-02
  57 F= -.95312522E+02 E0= -.95311422E+02  d E =-.466734E-02
       N       E                     dE             d eps       ncg     rms          rms(c)
DAV:   1    -0.924004519865E+02    0.13327E-03   -0.11140E-01  5752   0.101E+00    0.765E-02
DAV:   2    -0.924008613874E+02   -0.40940E-03   -0.46318E-03  6944   0.222E-01    0.468E-02
DAV:   3    -0.924008844700E+02   -0.23083E-04   -0.30783E-04  6672   0.782E-02    0.382E-02
DAV:   4    -0.924008998112E+02   -0.15341E-04   -0.23722E-04  5664   0.700E-02    0.453E-02
DAV:   5    -0.924008787016E+02    0.21110E-04   -0.85108E-05  4920   0.290E-02    0.178E-02
DAV:   6    -0.924008777966E+02    0.90493E-06   -0.45041E-05  4688   0.313E-02
  58 F= -.95312675E+02 E0= -.95311592E+02  d E =-.482003E-02
       N       E                     dE             d eps       ncg     rms          rms(c)
DAV:   1    -0.924009462752E+02   -0.67574E-04   -0.93924E-03  5752   0.288E-01    0.208E-02
DAV:   2    -0.924009817539E+02   -0.35479E-04   -0.39083E-04  6640   0.660E-02    0.132E-02
DAV:   3    -0.924009831996E+02   -0.14456E-05   -0.17866E-05  4648   0.188E-02
  59 F= -.95312825E+02 E0= -.95311742E+02  d E =-.150462E-03
       N       E                     dE             d eps       ncg     rms          rms(c)
DAV:   1    -0.924009697116E+02    0.12042E-04   -0.84967E-02  5784   0.858E-01    0.650E-02
DAV:   2    -0.924012752461E+02   -0.30553E-03   -0.32896E-03  6848   0.189E-01    0.538E-02
DAV:   3    -0.924013208576E+02   -0.45612E-04   -0.49082E-04  6968   0.909E-02    0.677E-02
DAV:   4    -0.924012665688E+02    0.54289E-04   -0.18566E-04  5416   0.533E-02    0.219E-02
DAV:   5    -0.924012728482E+02   -0.62793E-05   -0.38844E-05  4528   0.333E-02
  60 F= -.95313250E+02 E0= -.95312146E+02  d E =-.575242E-03
       N       E                     dE             d eps       ncg     rms          rms(c)
DAV:   1    -0.924004722685E+02    0.79430E-03   -0.33914E-01  5792   0.172E+00    0.124E-01
DAV:   2    -0.924016508140E+02   -0.11785E-02   -0.13109E-02  7024   0.370E-01    0.773E-02
DAV:   3    -0.924017287641E+02   -0.77950E-04   -0.10878E-03  7688   0.173E-01    0.622E-02
DAV:   4    -0.924017165084E+02    0.12256E-04   -0.72151E-04  6880   0.132E-01    0.575E-02
DAV:   5    -0.924017391065E+02   -0.22598E-04   -0.33420E-04  6344   0.501E-02    0.648E-02
DAV:   6    -0.924016818563E+02    0.57250E-04   -0.17441E-04  5472   0.488E-02    0.111E-02
DAV:   7    -0.924016831602E+02   -0.13039E-05   -0.14550E-05  4304   0.176E-02
  61 F= -.95313931E+02 E0= -.95312800E+02  d E =-.125579E-02
       N       E                     dE             d eps       ncg     rms          rms(c)
DAV:   1    -0.923970198536E+02    0.46620E-02   -0.13589E+00  5808   0.343E+00    0.245E-01
DAV:   2    -0.924016531240E+02   -0.46333E-02   -0.51661E-02  6768   0.722E-01    0.149E-01
DAV:   3    -0.924018737215E+02   -0.22060E-03   -0.30607E-03  8088   0.237E-01    0.108E-01
DAV:   4    -0.924021664245E+02   -0.29270E-03   -0.26542E-03  7352   0.233E-01    0.145E-01
DAV:   5    -0.924018976115E+02    0.26881E-03   -0.11321E-03  6432   0.112E-01    0.661E-02
DAV:   6    -0.924018473763E+02    0.50235E-04   -0.41411E-04  5888   0.919E-02    0.302E-02
DAV:   7    -0.924018376347E+02    0.97416E-05   -0.82288E-05  5800   0.444E-02
  62 F= -.95314625E+02 E0= -.95313432E+02  d E =-.195049E-02
       N       E                     dE             d eps       ncg     rms          rms(c)
DAV:   1    -0.924016225588E+02    0.22482E-03   -0.25845E-01  5784   0.140E+00    0.106E-01
DAV:   2    -0.924023561564E+02   -0.73360E-03   -0.84191E-03  6920   0.291E-01    0.668E-02
DAV:   3    -0.924024092425E+02   -0.53086E-04   -0.60555E-04  7344   0.101E-01    0.590E-02
DAV:   4    -0.924024265376E+02   -0.17295E-04   -0.47051E-04  6512   0.925E-02    0.613E-02
DAV:   5    -0.924023912035E+02    0.35334E-04   -0.13028E-04  5496   0.351E-02    0.197E-02
DAV:   6    -0.924023906175E+02    0.58592E-06   -0.76083E-05  4760   0.440E-02
  63 F= -.95315386E+02 E0= -.95314164E+02  d E =-.760325E-03
       N       E                     dE             d eps       ncg     rms          rms(c)
DAV:   1    -0.924014351085E+02    0.95609E-03   -0.34004E-01  5792   0.160E+00    0.121E-01
DAV:   2    -0.924024010642E+02   -0.96596E-03   -0.11106E-02  7056   0.334E-01    0.769E-02
DAV:   3    -0.924024572883E+02   -0.56224E-04   -0.67690E-04  7904   0.110E-01    0.663E-02
DAV:   4    -0.924024922757E+02   -0.34987E-04   -0.60674E-04  6464   0.101E-01    0.731E-02
DAV:   5    -0.924024349964E+02    0.57279E-04   -0.18183E-04  5656   0.418E-02    0.191E-02
DAV:   6    -0.924024386125E+02   -0.36160E-05   -0.83412E-05  4768   0.439E-02
  64 F= -.95315670E+02 E0= -.95314418E+02  d E =-.104493E-02
       N       E                     dE             d eps       ncg     rms          rms(c)
DAV:   1    -0.924025471346E+02   -0.11214E-03   -0.43634E-02  5776   0.569E-01    0.437E-02
DAV:   2    -0.924026746165E+02   -0.12748E-03   -0.14324E-03  7376   0.125E-01    0.278E-02
DAV:   3    -0.924026810002E+02   -0.63837E-05   -0.72090E-05  6480   0.347E-02
  65 F= -.95315993E+02 E0= -.95314737E+02  d E =-.322840E-03
       N       E                     dE             d eps       ncg     rms          rms(c)
DAV:   1    -0.924022135744E+02    0.46104E-03   -0.39348E-01  5792   0.170E+00    0.134E-01
DAV:   2    -0.924033657493E+02   -0.11522E-02   -0.12562E-02  7024   0.365E-01    0.114E-01
DAV:   3    -0.924035276698E+02   -0.16192E-03   -0.19411E-03  7792   0.177E-01    0.137E-01
DAV:   4    -0.924033137996E+02    0.21387E-03   -0.74173E-04  6616   0.104E-01    0.444E-02
DAV:   5    -0.924033492813E+02   -0.35482E-04   -0.17721E-04  6136   0.686E-02    0.236E-02
DAV:   6    -0.924033342624E+02    0.15019E-04   -0.15768E-04  5216   0.666E-02    0.115E-02
DAV:   7    -0.924033318183E+02    0.24441E-05   -0.18647E-05  3856   0.238E-02
  66 F= -.95316885E+02 E0= -.95315590E+02  d E =-.121443E-02
       N       E                     dE             d eps       ncg     rms          rms(c)
DAV:   1    -0.923995640130E+02    0.37702E-02   -0.15739E+00  5792   0.340E+00    0.251E-01
DAV:   2    -0.924040179843E+02   -0.44540E-02   -0.49977E-02  6888   0.714E-01    0.160E-01
DAV:   3    -0.924043762341E+02   -0.35825E-03   -0.34023E-03  8160   0.229E-01    0.158E-01
DAV:   4    -0.924043391788E+02    0.37055E-04   -0.25206E-03  7280   0.196E-01    0.135E-01
DAV:   5    -0.924041693778E+02    0.16980E-03   -0.53085E-04  6208   0.806E-02    0.272E-02
DAV:   6    -0.924041945853E+02   -0.25208E-04   -0.13952E-04  5936   0.603E-02    0.217E-02
DAV:   7    -0.924041809543E+02    0.13631E-04   -0.84884E-05  5192   0.479E-02    0.616E-03
DAV:   8    -0.924041813770E+02   -0.42265E-06   -0.74397E-06  3472   0.158E-02
  67 F= -.95318213E+02 E0= -.95316851E+02  d E =-.254244E-02
       N       E                     dE             d eps       ncg     rms          rms(c)
DAV:   1    -0.923848380990E+02    0.19343E-01   -0.63075E+00  5784   0.681E+00    0.500E-01
DAV:   2    -0.924031717320E+02   -0.18334E-01   -0.20431E-01  6880   0.144E+00    0.315E-01
DAV:   3    -0.924043337857E+02   -0.11621E-02   -0.12679E-02  8072   0.436E-01    0.280E-01
DAV:   4    -0.924047788707E+02   -0.44509E-03   -0.98811E-03  7248   0.370E-01    0.296E-01
DAV:   5    -0.924037511229E+02    0.10277E-02   -0.27040E-03  6776   0.190E-01    0.560E-02
DAV:   6    -0.924038517166E+02   -0.10059E-03   -0.69282E-04  6736   0.133E-01    0.468E-02
DAV:   7    -0.924037862662E+02    0.65450E-04   -0.40003E-04  6520   0.100E-01    0.146E-02
DAV:   8    -0.924037872309E+02   -0.96473E-06   -0.44611E-05  5912   0.299E-02
  68 F= -.95318765E+02 E0= -.95317271E+02  d E =-.309516E-02
       N       E                     dE             d eps       ncg     rms          rms(c)
DAV:   1    -0.924014504700E+02    0.23358E-02   -0.10033E+00  5784   0.271E+00    0.204E-01
DAV:   2    -0.924042160220E+02   -0.27656E-02   -0.31062E-02  6832   0.565E-01    0.127E-01
DAV:   3    -0.924044946368E+02   -0.27861E-03   -0.24783E-03  8640   0.217E-01    0.136E-01
DAV:   4    -0.924043811806E+02    0.11346E-03   -0.16283E-03  6872   0.157E-01    0.989E-02
DAV:   5    -0.924043154434E+02    0.65737E-04   -0.28484E-04  6296   0.529E-02    0.257E-02
DAV:   6    -0.924043377526E+02   -0.22309E-04   -0.17626E-04  5760   0.670E-02    0.247E-02
DAV:   7    -0.924043183120E+02    0.19441E-04   -0.79522E-05  4672   0.447E-02    0.486E-03
DAV:   8    -0.924043188542E+02   -0.54215E-06   -0.53088E-06  3392   0.119E-02
  69 F= -.95318920E+02 E0= -.95317480E+02  d E =-.324982E-02
       N       E                     dE             d eps       ncg     rms          rms(c)
DAV:   1    -0.924040740700E+02    0.24424E-03   -0.56959E-02  5792   0.647E-01    0.483E-02
DAV:   2    -0.924042324044E+02   -0.15833E-03   -0.17931E-03  6840   0.138E-01    0.303E-02
DAV:   3    -0.924042457284E+02   -0.13324E-04   -0.12163E-04  6712   0.439E-02    0.303E-02
DAV:   4    -0.924042440978E+02    0.16306E-05   -0.89124E-05  4920   0.379E-02
  70 F= -.95318935E+02 E0= -.95317472E+02  d E =-.326508E-02
       N       E                     dE             d eps       ncg     rms          rms(c)
DAV:   1    -0.924046028170E+02   -0.35709E-03   -0.88420E-03  5960   0.264E-01    0.204E-02
DAV:   2    -0.924046293646E+02   -0.26548E-04   -0.28232E-04  7216   0.669E-02    0.147E-02
DAV:   3    -0.924046312155E+02   -0.18509E-05   -0.32852E-05  4672   0.317E-02
  71 F= -.95319297E+02 E0= -.95317849E+02  d E =-.361589E-03
       N       E                     dE             d eps       ncg     rms          rms(c)
DAV:   1    -0.924055147948E+02   -0.88543E-03   -0.79624E-02  5936   0.788E-01    0.580E-02
DAV:   2    -0.924057411087E+02   -0.22631E-03   -0.24042E-03  7440   0.189E-01    0.377E-02
DAV:   3    -0.924057784321E+02   -0.37323E-04   -0.39116E-04  7512   0.102E-01    0.473E-02
DAV:   4    -0.924057432271E+02    0.35205E-04   -0.17420E-04  5112   0.558E-02    0.250E-02
DAV:   5    -0.924057498545E+02   -0.66274E-05   -0.59201E-05  4904   0.320E-02
  72 F= -.95320339E+02 E0= -.95318888E+02  d E =-.140424E-02
       N       E                     dE             d eps       ncg     rms          rms(c)
DAV:   1    -0.924068084912E+02   -0.10653E-02   -0.31758E-01  5928   0.157E+00    0.110E-01
DAV:   2    -0.924077047997E+02   -0.89631E-03   -0.94872E-03  7232   0.364E-01    0.698E-02
DAV:   3    -0.924077817178E+02   -0.76918E-04   -0.80446E-04  8312   0.133E-01    0.810E-02
DAV:   4    -0.924077275091E+02    0.54209E-04   -0.32458E-04  6208   0.657E-02    0.435E-02
DAV:   5    -0.924077776387E+02   -0.50130E-04   -0.38311E-04  5320   0.846E-02    0.461E-02
DAV:   6    -0.924077178458E+02    0.59793E-04   -0.23615E-04  5088   0.693E-02    0.848E-03
DAV:   7    -0.924077189775E+02   -0.11316E-05   -0.10634E-05  4272   0.166E-02
  73 F= -.95322159E+02 E0= -.95320721E+02  d E =-.322383E-02
       N       E                     dE             d eps       ncg     rms          rms(c)
DAV:   1    -0.924069633438E+02    0.75450E-03   -0.12689E+00  5936   0.315E+00    0.220E-01
DAV:   2    -0.924105535746E+02   -0.35902E-02   -0.38049E-02  6856   0.729E-01    0.131E-01
DAV:   3    -0.924108465467E+02   -0.29297E-03   -0.30024E-03  8720   0.271E-01    0.148E-01
DAV:   4    -0.924106839528E+02    0.16259E-03   -0.12497E-03  6648   0.130E-01    0.878E-02
DAV:   5    -0.924108453055E+02   -0.16135E-03   -0.13178E-03  6120   0.150E-01    0.842E-02
DAV:   6    -0.924106417088E+02    0.20360E-03   -0.88760E-04  6024   0.133E-01    0.200E-02
DAV:   7    -0.924106429960E+02   -0.12873E-05   -0.61009E-05  6376   0.350E-02
  74 F= -.95324794E+02 E0= -.95323381E+02  d E =-.585879E-02
       N       E                     dE             d eps       ncg     rms          rms(c)
DAV:   1    -0.923972072805E+02    0.13434E-01   -0.50793E+00  5928   0.632E+00    0.440E-01
DAV:   2    -0.924118959055E+02   -0.14689E-01   -0.15562E-01  6808   0.147E+00    0.260E-01
DAV:   3    -0.924130392961E+02   -0.11434E-02   -0.12067E-02  8360   0.550E-01    0.289E-01
DAV:   4    -0.924124353377E+02    0.60396E-03   -0.49735E-03  6888   0.263E-01    0.176E-01
DAV:   5    -0.924130649739E+02   -0.62964E-03   -0.51206E-03  7976   0.300E-01    0.167E-01
DAV:   6    -0.924122604126E+02    0.80456E-03   -0.34748E-03  7008   0.261E-01    0.403E-02
DAV:   7    -0.924122657671E+02   -0.53545E-05   -0.25388E-04  7608   0.680E-02    0.227E-02
DAV:   8    -0.924122604914E+02    0.52757E-05   -0.32343E-05  5192   0.275E-02
  75 F= -.95325874E+02 E0= -.95324528E+02  d E =-.693907E-02
       N       E                     dE             d eps       ncg     rms          rms(c)
DAV:   1    -0.924107622706E+02    0.15035E-02   -0.56604E-01  5928   0.210E+00    0.145E-01
DAV:   2    -0.924123403843E+02   -0.15781E-02   -0.16594E-02  7016   0.479E-01    0.934E-02
DAV:   3    -0.924125385727E+02   -0.19819E-03   -0.15539E-03  8216   0.143E-01    0.132E-01
DAV:   4    -0.924123683683E+02    0.17020E-03   -0.70941E-04  6552   0.765E-02    0.512E-02
DAV:   5    -0.924124237829E+02   -0.55415E-04   -0.60067E-04  5720   0.116E-01    0.430E-02
DAV:   6    -0.924123547532E+02    0.69030E-04   -0.31259E-04  5232   0.898E-02    0.128E-02
DAV:   7    -0.924123552489E+02   -0.49575E-06   -0.18894E-05  4672   0.199E-02
  76 F= -.95326142E+02 E0= -.95324774E+02  d E =-.720719E-02
       N       E                     dE             d eps       ncg     rms          rms(c)
DAV:   1    -0.924116888352E+02    0.66592E-03   -0.33879E-01  5848   0.171E+00    0.119E-01
DAV:   2    -0.924128014926E+02   -0.11127E-02   -0.12758E-02  6784   0.381E-01    0.866E-02
DAV:   3    -0.924129674749E+02   -0.16598E-03   -0.14889E-03  7904   0.132E-01    0.122E-01
DAV:   4    -0.924128055367E+02    0.16194E-03   -0.59415E-04  6152   0.831E-02    0.484E-02
DAV:   5    -0.924128394504E+02   -0.33914E-04   -0.30805E-04  5808   0.878E-02    0.372E-02
DAV:   6    -0.924128010886E+02    0.38362E-04   -0.22430E-04  5160   0.719E-02    0.149E-02
DAV:   7    -0.924128003390E+02    0.74958E-06   -0.20620E-05  4648   0.204E-02
  77 F= -.95326525E+02 E0= -.95325160E+02  d E =-.382392E-03
       N       E                     dE             d eps       ncg     rms          rms(c)
DAV:   1    -0.924127817020E+02    0.19387E-04   -0.37818E-02  5824   0.571E-01    0.399E-02
DAV:   2    -0.924129093143E+02   -0.12761E-03   -0.14473E-03  6712   0.130E-01    0.318E-02
DAV:   3    -0.924129272532E+02   -0.17939E-04   -0.18172E-04  6840   0.466E-02    0.419E-02
DAV:   4    -0.924129069368E+02    0.20316E-04   -0.66782E-05  4944   0.304E-02    0.159E-02
DAV:   5    -0.924129118518E+02   -0.49149E-05   -0.37509E-05  4328   0.323E-02
  78 F= -.95326657E+02 E0= -.95325290E+02  d E =-.514461E-03
       N       E                     dE             d eps       ncg     rms          rms(c)
DAV:   1    -0.924130827857E+02   -0.17585E-03   -0.69339E-03  5968   0.255E-01    0.156E-02
DAV:   2    -0.924131126573E+02   -0.29872E-04   -0.31185E-04  6592   0.638E-02    0.938E-03
DAV:   3    -0.924131151472E+02   -0.24899E-05   -0.28576E-05  4696   0.264E-02
  79 F= -.95326854E+02 E0= -.95325493E+02  d E =-.196664E-03
       N       E                     dE             d eps       ncg     rms          rms(c)
DAV:   1    -0.924134515198E+02   -0.33886E-03   -0.62739E-02  5848   0.754E-01    0.440E-02
DAV:   2    -0.924136903957E+02   -0.23888E-03   -0.25309E-03  6488   0.174E-01    0.280E-02
DAV:   3    -0.924137063674E+02   -0.15972E-04   -0.17106E-04  7120   0.470E-02    0.274E-02
DAV:   4    -0.924137072251E+02   -0.85772E-06   -0.53794E-05  4984   0.223E-02
  80 F= -.95327426E+02 E0= -.95326056E+02  d E =-.769479E-03
       N       E                     dE             d eps       ncg     rms          rms(c)
DAV:   1    -0.924137589556E+02   -0.52588E-04   -0.24987E-01  5848   0.151E+00    0.889E-02
DAV:   2    -0.924147456706E+02   -0.98672E-03   -0.10119E-02  6512   0.354E-01    0.812E-02
DAV:   3    -0.924148211187E+02   -0.75448E-04   -0.14212E-03  8024   0.169E-01    0.880E-02
DAV:   4    -0.924147278244E+02    0.93294E-04   -0.33791E-04  6208   0.747E-02    0.346E-02
DAV:   5    -0.924147453211E+02   -0.17497E-04   -0.81946E-05  5304   0.445E-02    0.274E-02
DAV:   6    -0.924147312667E+02    0.14054E-04   -0.93951E-05  5248   0.518E-02    0.921E-03
DAV:   7    -0.924147314212E+02   -0.15457E-06   -0.10200E-05  3376   0.188E-02
  81 F= -.95328415E+02 E0= -.95327061E+02  d E =-.175799E-02
       N       E                     dE             d eps       ncg     rms          rms(c)
DAV:   1    -0.924122122110E+02    0.25191E-02   -0.99986E-01  5856   0.301E+00    0.177E-01
DAV:   2    -0.924160395229E+02   -0.38273E-02   -0.40175E-02  6600   0.679E-01    0.126E-01
DAV:   3    -0.924164871988E+02   -0.44768E-03   -0.39058E-03  8632   0.221E-01    0.173E-01
DAV:   4    -0.924161651559E+02    0.32204E-03   -0.12864E-03  6816   0.117E-01    0.680E-02
DAV:   5    -0.924162232394E+02   -0.58083E-04   -0.60506E-04  6528   0.128E-01    0.515E-02
DAV:   6    -0.924161560345E+02    0.67205E-04   -0.39256E-04  5816   0.946E-02    0.224E-02
DAV:   7    -0.924161577883E+02   -0.17538E-05   -0.40628E-05  5392   0.258E-02
  82 F= -.95329781E+02 E0= -.95328443E+02  d E =-.312396E-02
       N       E                     dE             d eps       ncg     rms          rms(c)
DAV:   1    -0.924002124297E+02    0.15944E-01   -0.40012E+00  5856   0.604E+00    0.360E-01
DAV:   2    -0.924157746920E+02   -0.15562E-01   -0.16360E-01  6632   0.137E+00    0.252E-01
DAV:   3    -0.924175857445E+02   -0.18111E-02   -0.15725E-02  8624   0.459E-01    0.348E-01
DAV:   4    -0.924163027610E+02    0.12830E-02   -0.53793E-03  7640   0.237E-01    0.139E-01
DAV:   5    -0.924165285756E+02   -0.22581E-03   -0.24820E-03  6816   0.264E-01    0.105E-01
DAV:   6    -0.924162576881E+02    0.27089E-03   -0.15701E-03  6176   0.186E-01    0.465E-02
DAV:   7    -0.924162634457E+02   -0.57576E-05   -0.16094E-04  6136   0.523E-02    0.167E-02
DAV:   8    -0.924162633980E+02    0.47687E-07   -0.24871E-05  4848   0.217E-02
  83 F= -.95329811E+02 E0= -.95328526E+02  d E =-.315373E-02
       N       E                     dE             d eps       ncg     rms          rms(c)
DAV:   1    -0.924128865634E+02    0.33769E-02   -0.96463E-01  5848   0.297E+00    0.172E-01
DAV:   2    -0.924166250241E+02   -0.37385E-02   -0.38724E-02  6664   0.673E-01    0.140E-01
DAV:   3    -0.924170438248E+02   -0.41880E-03   -0.43721E-03  8272   0.252E-01    0.178E-01
DAV:   4    -0.924166724940E+02    0.37133E-03   -0.13100E-03  6304   0.131E-01    0.624E-02
DAV:   5    -0.924167427880E+02   -0.70294E-04   -0.59536E-04  6576   0.115E-01    0.521E-02
DAV:   6    -0.924166675729E+02    0.75215E-04   -0.38723E-04  5848   0.101E-01    0.190E-02
DAV:   7    -0.924166705313E+02   -0.29584E-05   -0.39195E-05  5264   0.286E-02
  84 F= -.95330247E+02 E0= -.95328938E+02  d E =-.359060E-02
       N       E                     dE             d eps       ncg     rms          rms(c)
DAV:   1    -0.924166295621E+02    0.38011E-04   -0.10295E-02  5856   0.307E-01    0.195E-02
DAV:   2    -0.924166735074E+02   -0.43945E-04   -0.44231E-04  6536   0.766E-02    0.183E-02
DAV:   3    -0.924166767446E+02   -0.32372E-05   -0.57609E-05  5344   0.288E-02
  85 F= -.95330250E+02 E0= -.95328950E+02  d E =-.359302E-02
       N       E                     dE             d eps       ncg     rms          rms(c)
DAV:   1    -0.924166564983E+02    0.17009E-04   -0.34492E-03  5784   0.181E-01    0.130E-02
DAV:   2    -0.924166729308E+02   -0.16433E-04   -0.16613E-04  6416   0.498E-02    0.970E-03
DAV:   3    -0.924166748544E+02   -0.19235E-05   -0.30763E-05  4480   0.262E-02
  86 F= -.95330250E+02 E0= -.95328934E+02  d E =-.359331E-02
       N       E                     dE             d eps       ncg     rms          rms(c)
DAV:   1    -0.924166685018E+02    0.44291E-05   -0.84307E-04  5720   0.915E-02    0.678E-03
DAV:   2    -0.924166727876E+02   -0.42858E-05   -0.40986E-05  4616   0.261E-02
  87 F= -.95330247E+02 E0= -.95328935E+02  d E =-.359016E-02
       N       E                     dE             d eps       ncg     rms          rms(c)
DAV:   1    -0.924166709470E+02   -0.24453E-05   -0.30411E-04  5528   0.552E-02    0.624E-03
DAV:   2    -0.924166763359E+02   -0.53889E-05   -0.28506E-05  4344   0.211E-02
  88 F= -.95330251E+02 E0= -.95328934E+02  d E =-.359436E-02
       N       E                     dE             d eps       ncg     rms          rms(c)
DAV:   1    -0.924166719075E+02   -0.96048E-06   -0.80881E-05  5616   0.327E-02    0.300E-03
DAV:   2    -0.924166727073E+02   -0.79974E-06   -0.59974E-06  2984   0.145E-02
  89 F= -.95330247E+02 E0= -.95328936E+02  d E =-.359040E-02
       N       E                     dE             d eps       ncg     rms          rms(c)
DAV:   1    -0.924166722792E+02   -0.37165E-06   -0.19963E-05  3968   0.173E-02    0.231E-03
DAV:   2    -0.924166728912E+02   -0.61201E-06   -0.31332E-06  2864   0.902E-03
  90 F= -.95330248E+02 E0= -.95328936E+02  d E =-.359076E-02
       N       E                     dE             d eps       ncg     rms          rms(c)
DAV:   1    -0.924166723283E+02   -0.49149E-07   -0.47426E-06  2864   0.949E-03    0.125E-03
DAV:   2    -0.924166724718E+02   -0.14346E-06   -0.10706E-06  2864   0.583E-03
  91 F= -.95330247E+02 E0= -.95328937E+02  d E =-.359026E-02
       N       E                     dE             d eps       ncg     rms          rms(c)
DAV:   1    -0.924166723974E+02   -0.69122E-07   -0.10843E-06  2824   0.516E-03    0.104E-03
DAV:   2    -0.924166724743E+02   -0.76860E-07   -0.47362E-07  2816   0.356E-03
  92 F= -.95330247E+02 E0= -.95328937E+02  d E =-.359031E-02
       N       E                     dE             d eps       ncg     rms          rms(c)
DAV:   1    -0.924166724237E+02   -0.26244E-07   -0.38896E-07  2816   0.321E-03    0.535E-04
DAV:   2    -0.924166724517E+02   -0.28071E-07   -0.16915E-07  2816   0.196E-03
  93 F= -.95330247E+02 E0= -.95328937E+02  d E =-.359026E-02
       N       E                     dE             d eps       ncg     rms          rms(c)
DAV:   1    -0.924167084592E+02   -0.36036E-04   -0.87888E-03  5840   0.288E-01    0.227E-02
DAV:   2    -0.924167447090E+02   -0.36250E-04   -0.44324E-04  5832   0.670E-02    0.164E-02
DAV:   3    -0.924167500593E+02   -0.53503E-05   -0.48817E-05  5528   0.257E-02
  94 F= -.95330342E+02 E0= -.95329018E+02  d E =-.945688E-04
       N       E                     dE             d eps       ncg     rms          rms(c)
DAV:   1    -0.924167423809E+02    0.23281E-05   -0.19912E-04  6008   0.478E-02    0.984E-03
DAV:   2    -0.924167451952E+02   -0.28143E-05   -0.24189E-05  4496   0.255E-02
  95 F= -.95330339E+02 E0= -.95329020E+02  d E =-.921080E-04
       N       E                     dE             d eps       ncg     rms          rms(c)
DAV:   1    -0.924167895221E+02   -0.47141E-04   -0.62344E-03  5856   0.276E-01    0.145E-02
DAV:   2    -0.924168355882E+02   -0.46066E-04   -0.47213E-04  6096   0.738E-02    0.111E-02
DAV:   3    -0.924168391166E+02   -0.35284E-05   -0.43499E-05  5032   0.278E-02
  96 F= -.95330453E+02 E0= -.95329137E+02  d E =-.113386E-03
       N       E                     dE             d eps       ncg     rms          rms(c)
DAV:   1    -0.924166671956E+02    0.16839E-03   -0.55812E-02  5952   0.821E-01    0.423E-02
DAV:   2    -0.924170513369E+02   -0.38414E-03   -0.39110E-03  6560   0.200E-01    0.400E-02
DAV:   3    -0.924170747267E+02   -0.23390E-04   -0.36866E-04  6912   0.665E-02    0.461E-02
DAV:   4    -0.924170482486E+02    0.26478E-04   -0.78641E-05  5136   0.364E-02    0.147E-02
DAV:   5    -0.924170499777E+02   -0.17291E-05   -0.22517E-05  4264   0.238E-02
  97 F= -.95330723E+02 E0= -.95329382E+02  d E =-.383469E-03
