       N       E                     dE             d eps       ncg     rms          rms(c)
DAV:   1     0.220146436744E+04    0.22015E+04   -0.92478E+04  5824   0.157E+03
DAV:   2     0.276092784073E+03   -0.19254E+04   -0.18710E+04  5640   0.451E+02
DAV:   3    -0.651488800939E+02   -0.34124E+03   -0.33157E+03  6424   0.198E+02
DAV:   4    -0.941050349437E+02   -0.28956E+02   -0.28382E+02  6672   0.560E+01
DAV:   5    -0.975225222731E+02   -0.34175E+01   -0.33854E+01  9432   0.124E+01    0.412E+01
RMM:   6    -0.918412132650E+02    0.56813E+01   -0.15724E+01  6296   0.654E+00    0.268E+01
RMM:   7    -0.949778729287E+02   -0.31367E+01   -0.11038E+01  7035   0.613E+00    0.123E+01
RMM:   8    -0.940195656653E+02    0.95831E+00   -0.45719E+00  7144   0.397E+00    0.902E+00
RMM:   9    -0.913560033163E+02    0.26636E+01   -0.80152E-01  7104   0.223E+00    0.255E+00
RMM:  10    -0.913310137391E+02    0.24990E-01   -0.44839E-01  9045   0.127E+00    0.108E+00
RMM:  11    -0.913418954577E+02   -0.10882E-01   -0.21020E-01  8943   0.832E-01    0.568E-01
RMM:  12    -0.913486921836E+02   -0.67967E-02   -0.92582E-02  9593   0.499E-01    0.506E-01
RMM:  13    -0.913527329539E+02   -0.40408E-02   -0.51076E-02  9617   0.342E-01    0.277E-01
RMM:  14    -0.913538929164E+02   -0.11600E-02   -0.29819E-02  9390   0.295E-01    0.177E-01
RMM:  15    -0.913562171694E+02   -0.23243E-02   -0.22061E-02  9453   0.211E-01    0.146E-01
RMM:  16    -0.913576514952E+02   -0.14343E-02   -0.14896E-02  9595   0.167E-01    0.803E-02
RMM:  17    -0.913584283011E+02   -0.77681E-03   -0.98807E-03  9471   0.135E-01    0.287E-02
RMM:  18    -0.913593426183E+02   -0.91432E-03   -0.59623E-03  9620   0.101E-01    0.358E-02
RMM:  19    -0.913599853081E+02   -0.64269E-03   -0.41357E-03  9436   0.804E-02    0.268E-02
RMM:  20    -0.913604563300E+02   -0.47102E-03   -0.25165E-03  9271   0.653E-02    0.334E-02
RMM:  21    -0.913608245172E+02   -0.36819E-03   -0.18885E-03  8833   0.531E-02    0.463E-02
RMM:  22    -0.913610431968E+02   -0.21868E-03   -0.11965E-03  8072   0.425E-02    0.234E-02
RMM:  23    -0.913611751599E+02   -0.13196E-03   -0.82171E-04  7296   0.347E-02    0.153E-02
RMM:  24    -0.913612417870E+02   -0.66627E-04   -0.54878E-04  6212   0.281E-02    0.106E-02
RMM:  25    -0.913612764172E+02   -0.34630E-04   -0.37573E-04  5404   0.230E-02    0.809E-03
RMM:  26    -0.913613005395E+02   -0.24122E-04   -0.24957E-04  4907   0.190E-02    0.277E-03
RMM:  27    -0.913613198958E+02   -0.19356E-04   -0.17418E-04  4644   0.150E-02    0.786E-03
RMM:  28    -0.913613322029E+02   -0.12307E-04   -0.12292E-04  4232   0.119E-02    0.138E-02
RMM:  29    -0.913613400039E+02   -0.78009E-05   -0.83474E-05  4061   0.101E-02
   1 F= -.94415118E+02 E0= -.94416150E+02  d E =-.944151E+02
       N       E                     dE             d eps       ncg     rms          rms(c)
DAV:   1    -0.913831134257E+02   -0.21781E-01   -0.19884E+01  5944   0.109E+01    0.117E+00
RMM:   2    -0.914878055638E+02   -0.10469E+00   -0.11362E+00  6408   0.247E+00    0.674E-01
RMM:   3    -0.915091333221E+02   -0.21328E-01   -0.17116E-01  8111   0.121E+00    0.769E-01
RMM:   4    -0.915040744773E+02    0.50588E-02   -0.34860E-02  8488   0.495E-01    0.500E-01
RMM:   5    -0.915041312943E+02   -0.56817E-04   -0.87011E-03  8600   0.220E-01    0.281E-01
RMM:   6    -0.915039123117E+02    0.21898E-03   -0.43779E-03  8125   0.135E-01    0.740E-02
RMM:   7    -0.915040507778E+02   -0.13847E-03   -0.17276E-03  8000   0.791E-02    0.821E-02
RMM:   8    -0.915041175666E+02   -0.66789E-04   -0.96857E-04  7122   0.507E-02    0.453E-02
RMM:   9    -0.915041858272E+02   -0.68261E-04   -0.52219E-04  6661   0.357E-02    0.313E-02
RMM:  10    -0.915042103507E+02   -0.24523E-04   -0.29497E-04  6235   0.269E-02    0.896E-03
RMM:  11    -0.915042304751E+02   -0.20124E-04   -0.17446E-04  5664   0.190E-02    0.122E-02
RMM:  12    -0.915042388742E+02   -0.83991E-05   -0.10189E-04  5161   0.141E-02    0.168E-02
RMM:  13    -0.915042615510E+02   -0.22677E-04   -0.70089E-05  4900   0.124E-02    0.445E-03
RMM:  14    -0.915042694023E+02   -0.78513E-05   -0.40503E-05  4081   0.886E-03
   2 F= -.94561924E+02 E0= -.94563001E+02  d E =-.146807E+00
       N       E                     dE             d eps       ncg     rms          rms(c)
DAV:   1    -0.912363424955E+02    0.26792E+00   -0.57046E+01  5512   0.188E+01    0.214E+00
RMM:   2    -0.915318599976E+02   -0.29552E+00   -0.32721E+00  6383   0.443E+00    0.118E+00
RMM:   3    -0.916003037972E+02   -0.68444E-01   -0.60569E-01  8117   0.216E+00    0.150E+00
RMM:   4    -0.915901576567E+02    0.10146E-01   -0.77822E-02  8550   0.800E-01    0.112E+00
RMM:   5    -0.915920056271E+02   -0.18480E-02   -0.24014E-02  8532   0.367E-01    0.710E-01
RMM:   6    -0.915888139085E+02    0.31917E-02   -0.14945E-02  7974   0.254E-01    0.220E-01
RMM:   7    -0.915891892574E+02   -0.37535E-03   -0.56551E-03  8648   0.147E-01    0.249E-01
RMM:   8    -0.915891705910E+02    0.18666E-04   -0.29532E-03  7913   0.896E-02    0.121E-01
RMM:   9    -0.915894375500E+02   -0.26696E-03   -0.19774E-03  7375   0.681E-02    0.114E-01
RMM:  10    -0.915894417317E+02   -0.41818E-05   -0.93646E-04  6904   0.507E-02    0.133E-02
RMM:  11    -0.915895325403E+02   -0.90809E-04   -0.62402E-04  6559   0.342E-02    0.291E-02
RMM:  12    -0.915895837899E+02   -0.51250E-04   -0.31440E-04  6118   0.247E-02    0.666E-03
RMM:  13    -0.915896226183E+02   -0.38828E-04   -0.21120E-04  5621   0.191E-02    0.458E-03
RMM:  14    -0.915896598241E+02   -0.37206E-04   -0.13586E-04  5014   0.149E-02    0.594E-03
RMM:  15    -0.915896725828E+02   -0.12759E-04   -0.91304E-05  4512   0.119E-02    0.331E-03
RMM:  16    -0.915896877137E+02   -0.15131E-04   -0.56294E-05  4119   0.957E-03    0.208E-03
RMM:  17    -0.915896971408E+02   -0.94271E-05   -0.42266E-05  3704   0.795E-03
   3 F= -.94654896E+02 E0= -.94655762E+02  d E =-.239778E+00
       N       E                     dE             d eps       ncg     rms          rms(c)
DAV:   1    -0.916225338192E+02   -0.32846E-01   -0.15666E+00  5880   0.306E+00    0.467E-01
RMM:   2    -0.916319838202E+02   -0.94500E-02   -0.11149E-01  6319   0.753E-01    0.267E-01
RMM:   3    -0.916335297881E+02   -0.15460E-02   -0.16249E-02  8082   0.369E-01    0.180E-01
RMM:   4    -0.916343183931E+02   -0.78861E-03   -0.29341E-03  8324   0.149E-01    0.143E-01
RMM:   5    -0.916337068679E+02    0.61153E-03   -0.69804E-04  7767   0.677E-02    0.567E-02
RMM:   6    -0.916336955066E+02    0.11361E-04   -0.34297E-04  6872   0.370E-02    0.262E-02
RMM:   7    -0.916337119957E+02   -0.16489E-04   -0.16460E-04  5762   0.229E-02    0.133E-02
RMM:   8    -0.916337205106E+02   -0.85149E-05   -0.88110E-05  4928   0.159E-02
   4 F= -.94700517E+02 E0= -.94701352E+02  d E =-.456217E-01
       N       E                     dE             d eps       ncg     rms          rms(c)
DAV:   1    -0.916004983787E+02    0.33214E-01   -0.14247E+01  5480   0.921E+00    0.131E+00
RMM:   2    -0.916833390268E+02   -0.82841E-01   -0.96842E-01  6447   0.232E+00    0.808E-01
RMM:   3    -0.916983733081E+02   -0.15034E-01   -0.16012E-01  8481   0.114E+00    0.604E-01
RMM:   4    -0.916993537087E+02   -0.98040E-03   -0.23529E-02  8353   0.431E-01    0.203E-01
RMM:   5    -0.917014184092E+02   -0.20647E-02   -0.72165E-03  8638   0.199E-01    0.236E-01
RMM:   6    -0.917000200796E+02    0.13983E-02   -0.25157E-03  8352   0.107E-01    0.113E-01
RMM:   7    -0.917001311377E+02   -0.11106E-03   -0.15248E-03  7923   0.668E-02    0.864E-02
RMM:   8    -0.917002378476E+02   -0.10671E-03   -0.81234E-04  7248   0.456E-02    0.600E-02
RMM:   9    -0.917002557069E+02   -0.17859E-04   -0.48904E-04  6703   0.349E-02    0.176E-02
RMM:  10    -0.917002828395E+02   -0.27133E-04   -0.26324E-04  5973   0.237E-02    0.222E-02
RMM:  11    -0.917002985357E+02   -0.15696E-04   -0.15615E-04  5445   0.172E-02    0.162E-02
RMM:  12    -0.917003093647E+02   -0.10829E-04   -0.94985E-05  5059   0.133E-02    0.101E-02
RMM:  13    -0.917003201466E+02   -0.10782E-04   -0.65849E-05  4568   0.109E-02    0.256E-03
RMM:  14    -0.917003237553E+02   -0.36087E-05   -0.40483E-05  3987   0.846E-03
   5 F= -.94772086E+02 E0= -.94772716E+02  d E =-.117190E+00
       N       E                     dE             d eps       ncg     rms          rms(c)
DAV:   1    -0.916956730677E+02    0.46471E-02   -0.93630E-01  5816   0.238E+00    0.395E-01
RMM:   2    -0.917012721139E+02   -0.55990E-02   -0.65665E-02  6334   0.594E-01    0.221E-01
RMM:   3    -0.917022282489E+02   -0.95614E-03   -0.95804E-03  8052   0.290E-01    0.147E-01
RMM:   4    -0.917028055487E+02   -0.57730E-03   -0.18521E-03  8271   0.120E-01    0.129E-01
RMM:   5    -0.917022927429E+02    0.51281E-03   -0.45315E-04  7575   0.557E-02    0.394E-02
RMM:   6    -0.917023014863E+02   -0.87434E-05   -0.22617E-04  6469   0.303E-02    0.219E-02
RMM:   7    -0.917023121358E+02   -0.10650E-04   -0.10915E-04  5295   0.190E-02    0.109E-02
RMM:   8    -0.917023186074E+02   -0.64715E-05   -0.60666E-05  4574   0.132E-02
   6 F= -.94775397E+02 E0= -.94775948E+02  d E =-.120501E+00
       N       E                     dE             d eps       ncg     rms          rms(c)
DAV:   1    -0.917188514576E+02   -0.16539E-01   -0.48068E-01  6368   0.177E+00    0.158E-01
RMM:   2    -0.917199329269E+02   -0.10815E-02   -0.13038E-02  5876   0.385E-01    0.759E-02
RMM:   3    -0.917204582488E+02   -0.52532E-03   -0.39238E-03  7441   0.209E-01    0.937E-02
RMM:   4    -0.917202561975E+02    0.20205E-03   -0.54838E-04  7374   0.711E-02    0.544E-02
RMM:   5    -0.917202559797E+02    0.21775E-06   -0.12632E-04  5918   0.296E-02    0.411E-02
RMM:   6    -0.917202556670E+02    0.31273E-06   -0.68772E-05  4979   0.184E-02
   7 F= -.94793400E+02 E0= -.94793932E+02  d E =-.180026E-01
       N       E                     dE             d eps       ncg     rms          rms(c)
DAV:   1    -0.917365364119E+02   -0.16280E-01   -0.43170E+00  5680   0.530E+00    0.489E-01
RMM:   2    -0.917463992224E+02   -0.98628E-02   -0.11871E-01  6014   0.118E+00    0.230E-01
RMM:   3    -0.917513271442E+02   -0.49279E-02   -0.36756E-02  7765   0.650E-01    0.283E-01
RMM:   4    -0.917494471679E+02    0.18800E-02   -0.51563E-03  7953   0.216E-01    0.166E-01
RMM:   5    -0.917494160371E+02    0.31131E-04   -0.97257E-04  8077   0.855E-02    0.125E-01
RMM:   6    -0.917493982690E+02    0.17768E-04   -0.65266E-04  6476   0.512E-02    0.438E-02
RMM:   7    -0.917493988352E+02   -0.56623E-06   -0.24522E-04  5566   0.353E-02    0.347E-02
RMM:   8    -0.917494029848E+02   -0.41496E-05   -0.10586E-04  5204   0.197E-02    0.123E-02
RMM:   9    -0.917494112210E+02   -0.82362E-05   -0.69547E-05  4848   0.140E-02
   8 F= -.94822774E+02 E0= -.94823266E+02  d E =-.473769E-01
       N       E                     dE             d eps       ncg     rms          rms(c)
DAV:   1    -0.917500401860E+02   -0.63720E-03   -0.42637E-01  6240   0.167E+00    0.153E-01
RMM:   2    -0.917510088934E+02   -0.96871E-03   -0.11600E-02  5882   0.367E-01    0.701E-02
RMM:   3    -0.917514945973E+02   -0.48570E-03   -0.35717E-03  7478   0.200E-01    0.877E-02
RMM:   4    -0.917513175665E+02    0.17703E-03   -0.51504E-04  7366   0.688E-02    0.495E-02
RMM:   5    -0.917513191121E+02   -0.15455E-05   -0.12863E-04  5869   0.295E-02    0.374E-02
RMM:   6    -0.917513219789E+02   -0.28668E-05   -0.71703E-05  4890   0.181E-02
   9 F= -.94824761E+02 E0= -.94825236E+02  d E =-.493635E-01
       N       E                     dE             d eps       ncg     rms          rms(c)
DAV:   1    -0.917656121712E+02   -0.14293E-01   -0.62267E-01  6104   0.194E+00    0.185E-01
RMM:   2    -0.917670243320E+02   -0.14122E-02   -0.14789E-02  5921   0.456E-01    0.822E-02
RMM:   3    -0.917678215464E+02   -0.79721E-03   -0.57147E-03  7519   0.254E-01    0.102E-01
RMM:   4    -0.917675638575E+02    0.25769E-03   -0.63850E-04  7522   0.813E-02    0.576E-02
RMM:   5    -0.917675710855E+02   -0.72281E-05   -0.14545E-04  6441   0.336E-02    0.490E-02
RMM:   6    -0.917675706724E+02    0.41315E-06   -0.62093E-05  5021   0.202E-02
  10 F= -.94841021E+02 E0= -.94841403E+02  d E =-.162607E-01
       N       E                     dE             d eps       ncg     rms          rms(c)
DAV:   1    -0.917844583080E+02   -0.16887E-01   -0.55945E+00  5968   0.583E+00    0.566E-01
RMM:   2    -0.917973456803E+02   -0.12887E-01   -0.13549E-01  6009   0.141E+00    0.252E-01
RMM:   3    -0.918047779762E+02   -0.74323E-02   -0.55053E-02  7791   0.801E-01    0.302E-01
RMM:   4    -0.918025489711E+02    0.22290E-02   -0.59954E-03  8006   0.249E-01    0.180E-01
RMM:   5    -0.918025987569E+02   -0.49786E-04   -0.11660E-03  8210   0.100E-01    0.153E-01
RMM:   6    -0.918025842686E+02    0.14488E-04   -0.49650E-04  6988   0.564E-02    0.525E-02
RMM:   7    -0.918025960682E+02   -0.11800E-04   -0.37897E-04  6037   0.436E-02    0.718E-02
RMM:   8    -0.918025923118E+02    0.37564E-05   -0.10881E-04  5402   0.249E-02    0.248E-02
RMM:   9    -0.918026027249E+02   -0.10413E-04   -0.10687E-04  5156   0.187E-02    0.170E-02
RMM:  10    -0.918026061932E+02   -0.34683E-05   -0.51007E-05  4925   0.154E-02
  11 F= -.94876135E+02 E0= -.94876246E+02  d E =-.513747E-01
       N       E                     dE             d eps       ncg     rms          rms(c)
DAV:   1    -0.917318566685E+02    0.70746E-01   -0.22419E+01  5952   0.118E+01    0.117E+00
RMM:   2    -0.917866517677E+02   -0.54795E-01   -0.57863E-01  6074   0.292E+00    0.516E-01
RMM:   3    -0.918182916014E+02   -0.31640E-01   -0.24713E-01  7798   0.172E+00    0.605E-01
RMM:   4    -0.918099902121E+02    0.83014E-02   -0.26991E-02  8126   0.527E-01    0.397E-01
RMM:   5    -0.918101578465E+02   -0.16763E-03   -0.48852E-03  8527   0.208E-01    0.343E-01
RMM:   6    -0.918101067126E+02    0.51134E-04   -0.19607E-03  7289   0.119E-01    0.115E-01
RMM:   7    -0.918101560708E+02   -0.49358E-04   -0.17109E-03  6850   0.984E-02    0.179E-01
RMM:   8    -0.918101151215E+02    0.40949E-04   -0.47259E-04  6797   0.596E-02    0.645E-02
RMM:   9    -0.918101488356E+02   -0.33714E-04   -0.49726E-04  6219   0.441E-02    0.417E-02
RMM:  10    -0.918101616490E+02   -0.12813E-04   -0.29022E-04  6156   0.440E-02    0.634E-02
RMM:  11    -0.918101721114E+02   -0.10462E-04   -0.90012E-05  5168   0.198E-02    0.339E-02
RMM:  12    -0.918101930242E+02   -0.20913E-04   -0.14254E-04  5166   0.173E-02    0.138E-02
RMM:  13    -0.918102029798E+02   -0.99556E-05   -0.35987E-05  4337   0.989E-03
  12 F= -.94884081E+02 E0= -.94883610E+02  d E =-.593204E-01
       N       E                     dE             d eps       ncg     rms          rms(c)
DAV:   1    -0.918053462490E+02    0.48468E-02   -0.37518E+00  5848   0.478E+00    0.443E-01
RMM:   2    -0.918137088204E+02   -0.83626E-02   -0.89147E-02  6015   0.115E+00    0.198E-01
RMM:   3    -0.918183698099E+02   -0.46610E-02   -0.35449E-02  7647   0.624E-01    0.230E-01
RMM:   4    -0.918172381359E+02    0.11317E-02   -0.39138E-03  8010   0.203E-01    0.148E-01
RMM:   5    -0.918172632824E+02   -0.25146E-04   -0.71243E-04  8082   0.786E-02    0.128E-01
RMM:   6    -0.918172645178E+02   -0.12355E-05   -0.27320E-04  6523   0.416E-02    0.516E-02
RMM:   7    -0.918172728108E+02   -0.82930E-05   -0.26768E-04  5558   0.333E-02    0.664E-02
RMM:   8    -0.918172684960E+02    0.43148E-05   -0.62772E-05  5061   0.185E-02
  13 F= -.94890972E+02 E0= -.94890745E+02  d E =-.662116E-01
       N       E                     dE             d eps       ncg     rms          rms(c)
DAV:   1    -0.918267355802E+02   -0.94628E-02   -0.13985E+00  5752   0.303E+00    0.289E-01
RMM:   2    -0.918294580182E+02   -0.27224E-02   -0.35702E-02  5964   0.645E-01    0.135E-01
RMM:   3    -0.918303512598E+02   -0.89324E-03   -0.11128E-02  7502   0.350E-01    0.832E-02
RMM:   4    -0.918305045549E+02   -0.15330E-03   -0.12865E-03  7456   0.110E-01    0.932E-02
RMM:   5    -0.918304007257E+02    0.10383E-03   -0.28047E-04  7235   0.483E-02    0.648E-02
RMM:   6    -0.918304056797E+02   -0.49539E-05   -0.13741E-04  5407   0.279E-02    0.227E-02
RMM:   7    -0.918304053803E+02    0.29938E-06   -0.74404E-05  5034   0.205E-02
  14 F= -.94904347E+02 E0= -.94903907E+02  d E =-.133749E-01
       N       E                     dE             d eps       ncg     rms          rms(c)
DAV:   1    -0.918309660977E+02   -0.56042E-03   -0.10570E+00  5824   0.263E+00    0.247E-01
RMM:   2    -0.918330122951E+02   -0.20462E-02   -0.27210E-02  5947   0.562E-01    0.114E-01
RMM:   3    -0.918336744161E+02   -0.66212E-03   -0.84772E-03  7599   0.306E-01    0.714E-02
RMM:   4    -0.918337823064E+02   -0.10789E-03   -0.98964E-04  7464   0.971E-02    0.753E-02
RMM:   5    -0.918337434302E+02    0.38876E-04   -0.24613E-04  6965   0.426E-02    0.594E-02
RMM:   6    -0.918337464160E+02   -0.29858E-05   -0.11334E-04  5345   0.245E-02    0.198E-02
RMM:   7    -0.918337475387E+02   -0.11227E-05   -0.72245E-05  4949   0.183E-02
  15 F= -.94907904E+02 E0= -.94907275E+02  d E =-.169319E-01
       N       E                     dE             d eps       ncg     rms          rms(c)
DAV:   1    -0.918399572180E+02   -0.62108E-02   -0.71210E-01  5680   0.221E+00    0.188E-01
RMM:   2    -0.918414722173E+02   -0.15150E-02   -0.16819E-02  6001   0.475E-01    0.807E-02
RMM:   3    -0.918420479250E+02   -0.57571E-03   -0.57758E-03  7586   0.261E-01    0.604E-02
RMM:   4    -0.918420871888E+02   -0.39264E-04   -0.67734E-04  7551   0.840E-02    0.603E-02
RMM:   5    -0.918420752415E+02    0.11947E-04   -0.16849E-04  6479   0.344E-02    0.510E-02
RMM:   6    -0.918420766673E+02   -0.14259E-05   -0.62335E-05  5046   0.188E-02
  16 F= -.94916747E+02 E0= -.94915972E+02  d E =-.884333E-02
       N       E                     dE             d eps       ncg     rms          rms(c)
DAV:   1    -0.918409714474E+02    0.11038E-02   -0.64047E+00  5448   0.664E+00    0.581E-01
RMM:   2    -0.918547280517E+02   -0.13757E-01   -0.15361E-01  6067   0.145E+00    0.252E-01
RMM:   3    -0.918602275732E+02   -0.54995E-02   -0.55059E-02  7792   0.809E-01    0.194E-01
RMM:   4    -0.918604469754E+02   -0.21940E-03   -0.62367E-03  7955   0.253E-01    0.190E-01
RMM:   5    -0.918602950561E+02    0.15192E-03   -0.13176E-03  8207   0.101E-01    0.156E-01
RMM:   6    -0.918602954934E+02   -0.43728E-06   -0.47372E-04  7090   0.539E-02    0.557E-02
RMM:   7    -0.918603242688E+02   -0.28775E-04   -0.41874E-04  5774   0.428E-02    0.738E-02
RMM:   8    -0.918603211911E+02    0.30777E-05   -0.11579E-04  5327   0.234E-02    0.296E-02
RMM:   9    -0.943215313366E+02   -0.24612E+01   -0.24612E+01  4726   0.157E-02    0.516E-01
RMM:  10    -0.909663543938E+02    0.33552E+01   -0.36398E-05  4452   0.121E-02    0.109E-01
RMM:  11    -0.909663638797E+02   -0.94858E-05   -0.23429E-05  4042   0.934E-03
  17 F= -.94042598E+02 E0= -.94041318E+02  d E =0.865306E+00
       N       E                     dE             d eps       ncg     rms          rms(c)
DAV:   1    -0.916486061247E+02   -0.68225E+00   -0.25711E+01  5480   0.134E+01    0.119E+00
RMM:   2    -0.918084044631E+02   -0.15980E+00   -0.16691E+00  6083   0.309E+00    0.510E-01
RMM:   3    -0.918556975150E+02   -0.47293E-01   -0.51566E-01  7783   0.177E+00    0.405E-01
RMM:   4    -0.918613665560E+02   -0.56690E-02   -0.78455E-02  8090   0.550E-01    0.417E-01
RMM:   5    -0.918631306449E+02   -0.17641E-02   -0.29655E-02  8530   0.223E-01    0.356E-01
RMM:   6    -0.918644785617E+02   -0.13479E-02   -0.14717E-02  7545   0.124E-01    0.135E-01
RMM:   7    -0.918653366322E+02   -0.85807E-03   -0.86902E-03  6526   0.108E-01    0.193E-01
RMM:   8    -0.918657357054E+02   -0.39907E-03   -0.46911E-03  7195   0.604E-02    0.731E-02
RMM:   9    -0.918660120408E+02   -0.27634E-03   -0.27385E-03  5597   0.358E-02    0.303E-02
RMM:  10    -0.918661922853E+02   -0.18024E-03   -0.16326E-03  5220   0.273E-02    0.303E-02
RMM:  11    -0.918663101322E+02   -0.11785E-03   -0.97122E-04  5141   0.199E-02    0.899E-03
RMM:  12    -0.918663800519E+02   -0.69920E-04   -0.60449E-04  4441   0.132E-02    0.144E-02
RMM:  13    -0.918664203426E+02   -0.40291E-04   -0.35040E-04  4037   0.981E-03    0.994E-03
RMM:  14    -0.918664474802E+02   -0.27138E-04   -0.22618E-04  3894   0.825E-03    0.663E-03
RMM:  15    -0.918664697766E+02   -0.22296E-04   -0.13596E-04  3665   0.704E-03    0.764E-03
RMM:  16    -0.918664853041E+02   -0.15528E-04   -0.88296E-05  3580   0.671E-03    0.259E-03
RMM:  17    -0.918664904799E+02   -0.51758E-05   -0.51695E-05  2437   0.515E-03
  18 F= -.94945978E+02 E0= -.94943792E+02  d E =-.380743E-01
       N       E                     dE             d eps       ncg     rms          rms(c)
DAV:   1    -0.918691225052E+02   -0.26372E-02   -0.82454E-01  5848   0.236E+00    0.201E-01
RMM:   2    -0.918710753180E+02   -0.19528E-02   -0.21962E-02  5925   0.487E-01    0.947E-02
RMM:   3    -0.918715808489E+02   -0.50553E-03   -0.58599E-03  7591   0.262E-01    0.599E-02
RMM:   4    -0.918716594861E+02   -0.78637E-04   -0.92073E-04  7497   0.893E-02    0.549E-02
RMM:   5    -0.918716628225E+02   -0.33364E-05   -0.17996E-04  6370   0.349E-02    0.490E-02
RMM:   6    -0.918716550831E+02    0.77394E-05   -0.76320E-05  5140   0.202E-02
  19 F= -.94951691E+02 E0= -.94949305E+02  d E =-.571226E-02
       N       E                     dE             d eps       ncg     rms          rms(c)
DAV:   1    -0.918702135509E+02    0.14493E-02   -0.94313E-01  5872   0.252E+00    0.222E-01
RMM:   2    -0.918724124020E+02   -0.21989E-02   -0.24886E-02  5944   0.520E-01    0.103E-01
RMM:   3    -0.918730534588E+02   -0.64106E-03   -0.69479E-03  7693   0.281E-01    0.703E-02
RMM:   4    -0.918731465778E+02   -0.93119E-04   -0.88634E-04  7608   0.924E-02    0.738E-02
RMM:   5    -0.918730834172E+02    0.63161E-04   -0.20175E-04  6648   0.372E-02    0.505E-02
RMM:   6    -0.918730864171E+02   -0.29999E-05   -0.98273E-05  5225   0.216E-02
  20 F= -.94953710E+02 E0= -.94951115E+02  d E =-.773142E-02
       N       E                     dE             d eps       ncg     rms          rms(c)
DAV:   1    -0.918752963908E+02   -0.22130E-02   -0.39891E-02  6504   0.488E-01    0.525E-02
RMM:   2    -0.918753664495E+02   -0.70059E-04   -0.86701E-04  5632   0.111E-01    0.264E-02
RMM:   3    -0.918754040321E+02   -0.37583E-04   -0.34589E-04  7037   0.626E-02    0.237E-02
RMM:   4    -0.918754000525E+02    0.39796E-05   -0.52890E-05  4975   0.218E-02
  21 F= -.94955953E+02 E0= -.94953353E+02  d E =-.224310E-02
       N       E                     dE             d eps       ncg     rms          rms(c)
DAV:   1    -0.918793763135E+02   -0.39723E-02   -0.36314E-01  5976   0.147E+00    0.162E-01
RMM:   2    -0.918800844092E+02   -0.70810E-03   -0.80429E-03  5862   0.335E-01    0.846E-02
RMM:   3    -0.918806287540E+02   -0.54434E-03   -0.31055E-03  7635   0.185E-01    0.116E-01
RMM:   4    -0.918803261979E+02    0.30256E-03   -0.43768E-04  7508   0.645E-02    0.542E-02
RMM:   5    -0.918803341905E+02   -0.79926E-05   -0.91269E-05  6000   0.272E-02
  22 F= -.94960678E+02 E0= -.94958042E+02  d E =-.696832E-02
       N       E                     dE             d eps       ncg     rms          rms(c)
DAV:   1    -0.918773078994E+02    0.30183E-02   -0.14521E+00  5960   0.294E+00    0.344E-01
RMM:   2    -0.918800265593E+02   -0.27187E-02   -0.32323E-02  5947   0.675E-01    0.175E-01
RMM:   3    -0.918822964830E+02   -0.22699E-02   -0.12663E-02  7854   0.374E-01    0.230E-01
RMM:   4    -0.918810229428E+02    0.12735E-02   -0.17898E-03  8050   0.130E-01    0.102E-01
RMM:   5    -0.918810501362E+02   -0.27193E-04   -0.36681E-04  7800   0.549E-02    0.841E-02
RMM:   6    -0.918810496710E+02    0.46520E-06   -0.18440E-04  5906   0.322E-02    0.359E-02
RMM:   7    -0.918810365094E+02    0.13162E-04   -0.10971E-04  5340   0.229E-02    0.176E-02
RMM:   8    -0.918810421133E+02   -0.56039E-05   -0.49783E-05  4738   0.139E-02
  23 F= -.94960980E+02 E0= -.94958298E+02  d E =-.727052E-02
       N       E                     dE             d eps       ncg     rms          rms(c)
DAV:   1    -0.918813450681E+02   -0.30856E-03   -0.34905E-01  6080   0.144E+00    0.164E-01
RMM:   2    -0.918819944569E+02   -0.64939E-03   -0.77015E-03  5811   0.328E-01    0.840E-02
RMM:   3    -0.918825087278E+02   -0.51427E-03   -0.30000E-03  7592   0.182E-01    0.108E-01
RMM:   4    -0.918822369490E+02    0.27178E-03   -0.39580E-04  7396   0.607E-02    0.504E-02
RMM:   5    -0.918822432285E+02   -0.62795E-05   -0.70827E-05  5860   0.257E-02
  24 F= -.94962379E+02 E0= -.94959731E+02  d E =-.866879E-02
       N       E                     dE             d eps       ncg     rms          rms(c)
DAV:   1    -0.918842466204E+02   -0.20097E-02   -0.97907E-02  6000   0.794E-01    0.760E-02
RMM:   2    -0.918844080492E+02   -0.16143E-03   -0.21117E-03  5857   0.174E-01    0.389E-02
RMM:   3    -0.918845069595E+02   -0.98910E-04   -0.82394E-04  7248   0.968E-02    0.282E-02
RMM:   4    -0.918844980294E+02    0.89301E-05   -0.10063E-04  6338   0.324E-02    0.298E-02
RMM:   5    -0.918844923028E+02    0.57266E-05   -0.22823E-05  3842   0.162E-02
  25 F= -.94964572E+02 E0= -.94961928E+02  d E =-.219301E-02
       N       E                     dE             d eps       ncg     rms          rms(c)
DAV:   1    -0.918858118451E+02   -0.13138E-02   -0.56606E-01  5944   0.190E+00    0.195E-01
RMM:   2    -0.918867789376E+02   -0.96709E-03   -0.12075E-02  5972   0.418E-01    0.928E-02
RMM:   3    -0.918872778443E+02   -0.49891E-03   -0.47122E-03  7761   0.231E-01    0.693E-02
RMM:   4    -0.918872916900E+02   -0.13846E-04   -0.58013E-04  7515   0.759E-02    0.598E-02
RMM:   5    -0.918872830905E+02    0.85995E-05   -0.11784E-04  6337   0.315E-02    0.500E-02
RMM:   6    -0.918872815953E+02    0.14952E-05   -0.89123E-05  5182   0.212E-02
  26 F= -.94967231E+02 E0= -.94964615E+02  d E =-.485217E-02
       N       E                     dE             d eps       ncg     rms          rms(c)
DAV:   1    -0.918873289306E+02   -0.45840E-04   -0.28841E-02  6416   0.430E-01    0.530E-02
RMM:   2    -0.918873807432E+02   -0.51813E-04   -0.69789E-04  5776   0.969E-02    0.237E-02
RMM:   3    -0.918874147573E+02   -0.34014E-04   -0.26827E-04  6971   0.544E-02    0.200E-02
RMM:   4    -0.918874100294E+02    0.47278E-05   -0.43878E-05  4793   0.207E-02
  27 F= -.94967331E+02 E0= -.94964723E+02  d E =-.495215E-02
       N       E                     dE             d eps       ncg     rms          rms(c)
DAV:   1    -0.918880958735E+02   -0.68112E-03   -0.39169E-02  5848   0.485E-01    0.445E-02
RMM:   2    -0.918881633326E+02   -0.67459E-04   -0.82627E-04  5637   0.101E-01    0.223E-02
RMM:   3    -0.918882068127E+02   -0.43480E-04   -0.30125E-04  6954   0.564E-02    0.284E-02
RMM:   4    -0.918881915210E+02    0.15292E-04   -0.44683E-05  4653   0.200E-02    0.166E-02
RMM:   5    -0.918881924858E+02   -0.96474E-06   -0.10722E-05  3413   0.110E-02
  28 F= -.94968069E+02 E0= -.94965456E+02  d E =-.737959E-03
       N       E                     dE             d eps       ncg     rms          rms(c)
DAV:   1    -0.918884984535E+02   -0.30693E-03   -0.19621E-01  5680   0.109E+00    0.102E-01
RMM:   2    -0.918888128441E+02   -0.31439E-03   -0.40543E-03  5790   0.223E-01    0.508E-02
RMM:   3    -0.918889375405E+02   -0.12470E-03   -0.14495E-03  7229   0.124E-01    0.291E-02
RMM:   4    -0.918889544595E+02   -0.16919E-04   -0.16845E-04  6376   0.389E-02    0.277E-02
RMM:   5    -0.918889543667E+02    0.92870E-07   -0.41578E-05  4742   0.191E-02
  29 F= -.94968731E+02 E0= -.94966109E+02  d E =-.140036E-02
       N       E                     dE             d eps       ncg     rms          rms(c)
DAV:   1    -0.918895360891E+02   -0.58163E-03   -0.25135E-02  6232   0.397E-01    0.386E-02
RMM:   2    -0.918895801078E+02   -0.44019E-04   -0.49445E-04  5753   0.815E-02    0.188E-02
RMM:   3    -0.918896019584E+02   -0.21851E-04   -0.19254E-04  6362   0.460E-02    0.143E-02
RMM:   4    -0.918895997160E+02    0.22425E-05   -0.27079E-05  4060   0.182E-02
  30 F= -.94969323E+02 E0= -.94966696E+02  d E =-.592440E-03
       N       E                     dE             d eps       ncg     rms          rms(c)
DAV:   1    -0.918908729396E+02   -0.12710E-02   -0.22501E-01  5536   0.119E+00    0.946E-02
RMM:   2    -0.918912619534E+02   -0.38901E-03   -0.42369E-03  5887   0.238E-01    0.456E-02
RMM:   3    -0.918914551392E+02   -0.19319E-03   -0.16379E-03  7301   0.133E-01    0.482E-02
RMM:   4    -0.918914181448E+02    0.36994E-04   -0.16951E-04  6537   0.414E-02    0.364E-02
RMM:   5    -0.918914206702E+02   -0.25254E-05   -0.42419E-05  4770   0.189E-02
  31 F= -.94970986E+02 E0= -.94968334E+02  d E =-.225496E-02
       N       E                     dE             d eps       ncg     rms          rms(c)
DAV:   1    -0.918923747632E+02   -0.95662E-03   -0.89724E-01  5488   0.237E+00    0.207E-01
RMM:   2    -0.918939165919E+02   -0.15418E-02   -0.16869E-02  6003   0.479E-01    0.977E-02
RMM:   3    -0.918946083600E+02   -0.69177E-03   -0.65819E-03  7502   0.267E-01    0.787E-02
RMM:   4    -0.918945545575E+02    0.53802E-04   -0.67312E-04  7438   0.818E-02    0.657E-02
RMM:   5    -0.918945541508E+02    0.40676E-06   -0.15070E-04  6438   0.345E-02    0.547E-02
RMM:   6    -0.918945578238E+02   -0.36730E-05   -0.63494E-05  5215   0.238E-02
  32 F= -.94973807E+02 E0= -.94971117E+02  d E =-.507645E-02
       N       E                     dE             d eps       ncg     rms          rms(c)
DAV:   1    -0.918900000149E+02    0.45541E-02   -0.35863E+00  5472   0.474E+00    0.410E-01
RMM:   2    -0.918962392921E+02   -0.62393E-02   -0.67733E-02  6075   0.963E-01    0.193E-01
RMM:   3    -0.918990531944E+02   -0.28139E-02   -0.26477E-02  7676   0.534E-01    0.158E-01
RMM:   4    -0.918988146605E+02    0.23853E-03   -0.26750E-03  7672   0.163E-01    0.129E-01
RMM:   5    -0.918988077488E+02    0.69117E-05   -0.57073E-04  7863   0.684E-02    0.107E-01
RMM:   6    -0.918988154415E+02   -0.76927E-05   -0.24481E-04  6312   0.434E-02    0.659E-02
RMM:   7    -0.918988245355E+02   -0.90940E-05   -0.16560E-04  5531   0.315E-02    0.530E-02
RMM:   8    -0.918988282862E+02   -0.37507E-05   -0.68370E-05  4848   0.174E-02
  33 F= -.94977452E+02 E0= -.94974675E+02  d E =-.872066E-02
       N       E                     dE             d eps       ncg     rms          rms(c)
DAV:   1    -0.918628558888E+02    0.35969E-01   -0.14367E+01  5440   0.951E+00    0.799E-01
RMM:   2    -0.918886931204E+02   -0.25837E-01   -0.28148E-01  6143   0.200E+00    0.378E-01
RMM:   3    -0.918999071334E+02   -0.11214E-01   -0.11243E-01  7805   0.110E+00    0.313E-01
RMM:   4    -0.918995690731E+02    0.33806E-03   -0.11284E-02  7967   0.337E-01    0.278E-01
RMM:   5    -0.918994324172E+02    0.13666E-03   -0.23181E-03  8098   0.140E-01    0.238E-01
RMM:   6    -0.918994618797E+02   -0.29462E-04   -0.10364E-03  6639   0.939E-02    0.127E-01
RMM:   7    -0.918994738282E+02   -0.11949E-04   -0.78883E-04  6477   0.742E-02    0.133E-01
RMM:   8    -0.918994789758E+02   -0.51475E-05   -0.28838E-04  6673   0.427E-02    0.258E-02
RMM:   9    -0.918994879061E+02   -0.89303E-05   -0.13079E-04  5271   0.235E-02    0.146E-02
RMM:  10    -0.918994922331E+02   -0.43270E-05   -0.58489E-05  4989   0.190E-02
  34 F= -.94976881E+02 E0= -.94973969E+02  d E =-.814987E-02
       N       E                     dE             d eps       ncg     rms          rms(c)
DAV:   1    -0.918882896264E+02    0.11198E-01   -0.48922E+00  5440   0.553E+00    0.479E-01
RMM:   2    -0.918969254222E+02   -0.86358E-02   -0.92854E-02  6069   0.112E+00    0.220E-01
RMM:   3    -0.919007984652E+02   -0.38730E-02   -0.35803E-02  7688   0.629E-01    0.194E-01
RMM:   4    -0.919003594643E+02    0.43900E-03   -0.35664E-03  7635   0.186E-01    0.157E-01
RMM:   5    -0.919003558872E+02    0.35771E-05   -0.65349E-04  7956   0.757E-02    0.130E-01
RMM:   6    -0.919003587194E+02   -0.28323E-05   -0.38620E-04  6427   0.493E-02    0.888E-02
RMM:   7    -0.919003682670E+02   -0.95475E-05   -0.15327E-04  5462   0.319E-02    0.670E-02
RMM:   8    -0.919003680517E+02    0.21532E-06   -0.60085E-05  5017   0.173E-02
  35 F= -.94978476E+02 E0= -.94975646E+02  d E =-.974528E-02
       N       E                     dE             d eps       ncg     rms          rms(c)
DAV:   1    -0.919019580866E+02   -0.15898E-02   -0.80917E-01  5816   0.224E+00    0.221E-01
RMM:   2    -0.919034923041E+02   -0.15342E-02   -0.17123E-02  5977   0.479E-01    0.111E-01
RMM:   3    -0.919045605424E+02   -0.10682E-02   -0.68475E-03  7694   0.269E-01    0.131E-01
RMM:   4    -0.919041504547E+02    0.41009E-03   -0.84851E-04  7497   0.874E-02    0.706E-02
RMM:   5    -0.919041558853E+02   -0.54306E-05   -0.13631E-04  6728   0.349E-02    0.560E-02
RMM:   6    -0.919041584636E+02   -0.25783E-05   -0.60754E-05  5173   0.216E-02
  36 F= -.94981557E+02 E0= -.94978680E+02  d E =-.308036E-02
       N       E                     dE             d eps       ncg     rms          rms(c)
DAV:   1    -0.919035451281E+02    0.61076E-03   -0.10230E+00  5744   0.252E+00    0.251E-01
RMM:   2    -0.919054683554E+02   -0.19232E-02   -0.21804E-02  5996   0.539E-01    0.124E-01
RMM:   3    -0.919067875097E+02   -0.13192E-02   -0.88670E-03  7811   0.304E-01    0.138E-01
RMM:   4    -0.919063368978E+02    0.45061E-03   -0.98035E-04  7576   0.966E-02    0.791E-02
RMM:   5    -0.919063408103E+02   -0.39125E-05   -0.18320E-04  7018   0.398E-02    0.620E-02
RMM:   6    -0.919063461532E+02   -0.53429E-05   -0.82422E-05  5355   0.241E-02
  37 F= -.94982950E+02 E0= -.94980026E+02  d E =-.447327E-02
       N       E                     dE             d eps       ncg     rms          rms(c)
DAV:   1    -0.919078433225E+02   -0.15025E-02   -0.21986E-01  5952   0.117E+00    0.117E-01
RMM:   2    -0.919082823855E+02   -0.43906E-03   -0.48150E-03  5925   0.237E-01    0.563E-02
RMM:   3    -0.919085027351E+02   -0.22035E-03   -0.16396E-03  7472   0.130E-01    0.522E-02
RMM:   4    -0.919084503142E+02    0.52421E-04   -0.20722E-04  6790   0.442E-02    0.331E-02
RMM:   5    -0.919084510499E+02   -0.73571E-06   -0.52325E-05  5080   0.213E-02
  38 F= -.94984659E+02 E0= -.94981702E+02  d E =-.170987E-02
       N       E                     dE             d eps       ncg     rms          rms(c)
DAV:   1    -0.919082146142E+02    0.23570E-03   -0.19806E+00  5456   0.351E+00    0.327E-01
RMM:   2    -0.919121928452E+02   -0.39782E-02   -0.43260E-02  6062   0.726E-01    0.160E-01
RMM:   3    -0.919140814184E+02   -0.18886E-02   -0.15036E-02  7798   0.397E-01    0.159E-01
RMM:   4    -0.919136485605E+02    0.43286E-03   -0.17798E-03  7718   0.129E-01    0.106E-01
RMM:   5    -0.919136547661E+02   -0.62056E-05   -0.34632E-04  7510   0.528E-02    0.833E-02
RMM:   6    -0.919136578764E+02   -0.31103E-05   -0.15964E-04  5859   0.328E-02    0.355E-02
RMM:   7    -0.919136631343E+02   -0.52578E-05   -0.89361E-05  5280   0.237E-02
  39 F= -.94988691E+02 E0= -.94985615E+02  d E =-.574142E-02
       N       E                     dE             d eps       ncg     rms          rms(c)
DAV:   1    -0.918965513653E+02    0.17107E-01   -0.79261E+00  5440   0.704E+00    0.645E-01
RMM:   2    -0.919130634512E+02   -0.16512E-01   -0.17881E-01  6151   0.149E+00    0.314E-01
RMM:   3    -0.919207307540E+02   -0.76673E-02   -0.62881E-02  7914   0.824E-01    0.315E-01
RMM:   4    -0.919191214790E+02    0.16093E-02   -0.74706E-03  7981   0.263E-01    0.217E-01
RMM:   5    -0.919191192744E+02    0.22045E-05   -0.13763E-03  8113   0.107E-01    0.173E-01
RMM:   6    -0.919191324721E+02   -0.13198E-04   -0.70736E-04  6837   0.684E-02    0.779E-02
RMM:   7    -0.919191400951E+02   -0.76231E-05   -0.34272E-04  6495   0.481E-02    0.717E-02
RMM:   8    -0.919191405560E+02   -0.46087E-06   -0.16372E-04  5863   0.312E-02    0.145E-02
RMM:   9    -0.919191463010E+02   -0.57450E-05   -0.77694E-05  5116   0.186E-02
  40 F= -.94991833E+02 E0= -.94988527E+02  d E =-.888315E-02
       N       E                     dE             d eps       ncg     rms          rms(c)
DAV:   1    -0.919186686509E+02    0.47191E-03   -0.13302E+00  5760   0.286E+00    0.258E-01
RMM:   2    -0.919213340127E+02   -0.26654E-02   -0.29390E-02  6021   0.588E-01    0.125E-01
RMM:   3    -0.919223004878E+02   -0.96648E-03   -0.10153E-02  7647   0.322E-01    0.880E-02
RMM:   4    -0.919223741293E+02   -0.73641E-04   -0.11909E-03  7540   0.104E-01    0.871E-02
RMM:   5    -0.919223303621E+02    0.43767E-04   -0.22807E-04  7026   0.425E-02    0.681E-02
RMM:   6    -0.919223316918E+02   -0.13297E-05   -0.10610E-04  5476   0.273E-02    0.302E-02
RMM:   7    -0.919223387973E+02   -0.71055E-05   -0.69263E-05  4950   0.204E-02
  41 F= -.94993978E+02 E0= -.94990539E+02  d E =-.214498E-02
       N       E                     dE             d eps       ncg     rms          rms(c)
DAV:   1    -0.919224239108E+02   -0.92219E-04   -0.24875E-01  6096   0.124E+00    0.112E-01
RMM:   2    -0.919229257431E+02   -0.50183E-03   -0.55303E-03  5806   0.252E-01    0.534E-02
RMM:   3    -0.919231230644E+02   -0.19732E-03   -0.18944E-03  7420   0.138E-01    0.424E-02
RMM:   4    -0.919231202726E+02    0.27918E-05   -0.22623E-04  6655   0.457E-02    0.378E-02
RMM:   5    -0.919231174245E+02    0.28481E-05   -0.53231E-05  5185   0.221E-02
  42 F= -.94994305E+02 E0= -.94990810E+02  d E =-.247202E-02
       N       E                     dE             d eps       ncg     rms          rms(c)
DAV:   1    -0.919232020006E+02   -0.81728E-04   -0.84657E-03  6408   0.228E-01    0.304E-02
RMM:   2    -0.919232174304E+02   -0.15430E-04   -0.18715E-04  5784   0.479E-02    0.154E-02
RMM:   3    -0.919232247315E+02   -0.73012E-05   -0.71816E-05  5033   0.275E-02
  43 F= -.94994328E+02 E0= -.94990823E+02  d E =-.249567E-02
       N       E                     dE             d eps       ncg     rms          rms(c)
DAV:   1    -0.919241174441E+02   -0.90001E-03   -0.72693E-02  5976   0.674E-01    0.618E-02
RMM:   2    -0.919242650133E+02   -0.14757E-03   -0.15874E-03  5706   0.149E-01    0.298E-02
RMM:   3    -0.919243632439E+02   -0.98231E-04   -0.64488E-04  7287   0.839E-02    0.395E-02
RMM:   4    -0.919243290980E+02    0.34146E-04   -0.71558E-05  5867   0.278E-02    0.233E-02
RMM:   5    -0.919243305994E+02   -0.15015E-05   -0.16965E-05  3455   0.134E-02
  44 F= -.94995186E+02 E0= -.94991626E+02  d E =-.858040E-03
       N       E                     dE             d eps       ncg     rms          rms(c)
DAV:   1    -0.919251324167E+02   -0.80332E-03   -0.65124E-01  5824   0.202E+00    0.191E-01
RMM:   2    -0.919264034274E+02   -0.12710E-02   -0.14097E-02  5973   0.448E-01    0.917E-02
RMM:   3    -0.919269996955E+02   -0.59627E-03   -0.57734E-03  7633   0.251E-01    0.632E-02
RMM:   4    -0.919270450075E+02   -0.45312E-04   -0.62460E-04  7474   0.795E-02    0.649E-02
RMM:   5    -0.919270325356E+02    0.12472E-04   -0.12011E-04  6563   0.329E-02    0.540E-02
RMM:   6    -0.919270326345E+02   -0.98909E-07   -0.62544E-05  5145   0.212E-02
  45 F= -.94997149E+02 E0= -.94993433E+02  d E =-.282023E-02
       N       E                     dE             d eps       ncg     rms          rms(c)
DAV:   1    -0.919219533279E+02    0.50792E-02   -0.26033E+00  5760   0.404E+00    0.393E-01
RMM:   2    -0.919271031308E+02   -0.51498E-02   -0.57267E-02  6001   0.905E-01    0.188E-01
RMM:   3    -0.919295569079E+02   -0.24538E-02   -0.23639E-02  7849   0.510E-01    0.129E-01
RMM:   4    -0.919297160374E+02   -0.15913E-03   -0.25486E-03  7906   0.160E-01    0.128E-01
RMM:   5    -0.919296541484E+02    0.61889E-04   -0.45041E-04  7903   0.626E-02    0.106E-01
RMM:   6    -0.919296524298E+02    0.17186E-05   -0.22422E-04  6309   0.381E-02    0.504E-02
RMM:   7    -0.919296616076E+02   -0.91778E-05   -0.83504E-05  5335   0.266E-02
  46 F= -.94998315E+02 E0= -.94994295E+02  d E =-.398612E-02
       N       E                     dE             d eps       ncg     rms          rms(c)
DAV:   1    -0.919300166025E+02   -0.36417E-03   -0.15221E-02  6320   0.314E-01    0.293E-02
RMM:   2    -0.919300533697E+02   -0.36767E-04   -0.39431E-04  5941   0.696E-02    0.131E-02
RMM:   3    -0.919300716764E+02   -0.18307E-04   -0.14503E-04  6371   0.390E-02    0.123E-02
RMM:   4    -0.919300699664E+02    0.17101E-05   -0.29137E-05  3979   0.177E-02
  47 F= -.94998615E+02 E0= -.94994573E+02  d E =-.300286E-03
       N       E                     dE             d eps       ncg     rms          rms(c)
DAV:   1    -0.919308247184E+02   -0.75304E-03   -0.13451E-01  5744   0.928E-01    0.783E-02
RMM:   2    -0.919310980148E+02   -0.27330E-03   -0.29279E-03  5826   0.196E-01    0.374E-02
RMM:   3    -0.919312326841E+02   -0.13467E-03   -0.10889E-03  7362   0.109E-01    0.405E-02
RMM:   4    -0.919312088526E+02    0.23832E-04   -0.12232E-04  6411   0.354E-02    0.305E-02
RMM:   5    -0.919312111605E+02   -0.23079E-05   -0.32442E-05  4188   0.169E-02
  48 F= -.94999432E+02 E0= -.94995320E+02  d E =-.111784E-02
       N       E                     dE             d eps       ncg     rms          rms(c)
DAV:   1    -0.919316302651E+02   -0.42141E-03   -0.53613E-01  5584   0.185E+00    0.172E-01
RMM:   2    -0.919327023775E+02   -0.10721E-02   -0.11615E-02  5993   0.393E-01    0.807E-02
RMM:   3    -0.919331939757E+02   -0.49160E-03   -0.43368E-03  7568   0.218E-01    0.693E-02
RMM:   4    -0.919331505896E+02    0.43386E-04   -0.47012E-04  7404   0.689E-02    0.558E-02
RMM:   5    -0.919331512355E+02   -0.64583E-06   -0.95008E-05  6196   0.289E-02
  49 F= -.95000728E+02 E0= -.94996478E+02  d E =-.241300E-02
       N       E                     dE             d eps       ncg     rms          rms(c)
DAV:   1    -0.919295396768E+02    0.36109E-02   -0.21439E+00  5472   0.371E+00    0.350E-01
RMM:   2    -0.919338669135E+02   -0.43272E-02   -0.46912E-02  6051   0.795E-01    0.165E-01
RMM:   3    -0.919357940609E+02   -0.19271E-02   -0.17627E-02  7744   0.441E-01    0.134E-01
RMM:   4    -0.919356815961E+02    0.11246E-03   -0.19303E-03  7822   0.139E-01    0.111E-01
RMM:   5    -0.919356686271E+02    0.12969E-04   -0.36212E-04  7742   0.554E-02    0.887E-02
RMM:   6    -0.919356655832E+02    0.30439E-05   -0.17327E-04  5992   0.341E-02    0.494E-02
RMM:   7    -0.919356726475E+02   -0.70643E-05   -0.91740E-05  5242   0.250E-02
  50 F= -.95001969E+02 E0= -.94997467E+02  d E =-.365459E-02
       N       E                     dE             d eps       ncg     rms          rms(c)
DAV:   1    -0.919357088717E+02   -0.43289E-04   -0.80366E-02  6312   0.719E-01    0.662E-02
RMM:   2    -0.919358829848E+02   -0.17411E-03   -0.18694E-03  5882   0.155E-01    0.300E-02
RMM:   3    -0.919359654983E+02   -0.82514E-04   -0.67006E-04  7398   0.864E-02    0.285E-02
RMM:   4    -0.919359567784E+02    0.87200E-05   -0.10327E-04  6063   0.301E-02    0.221E-02
RMM:   5    -0.919359574507E+02   -0.67235E-06   -0.25380E-05  4001   0.149E-02
  51 F= -.95002008E+02 E0= -.94997456E+02  d E =-.369389E-02
       N       E                     dE             d eps       ncg     rms          rms(c)
DAV:   1    -0.919365165205E+02   -0.55974E-03   -0.10966E-02  5848   0.246E-01    0.292E-02
RMM:   2    -0.919365313109E+02   -0.14790E-04   -0.31316E-04  5538   0.501E-02    0.136E-02
RMM:   3    -0.919365382140E+02   -0.69031E-05   -0.77799E-05  5174   0.261E-02
  52 F= -.95002539E+02 E0= -.94997989E+02  d E =-.530493E-03
       N       E                     dE             d eps       ncg     rms          rms(c)
DAV:   1    -0.919372118058E+02   -0.68049E-03   -0.88739E-02  5568   0.698E-01    0.816E-02
RMM:   2    -0.919373389210E+02   -0.12712E-03   -0.25564E-03  5791   0.142E-01    0.402E-02
RMM:   3    -0.919373954757E+02   -0.56555E-04   -0.61571E-04  7195   0.737E-02    0.377E-02
RMM:   4    -0.919373830632E+02    0.12413E-04   -0.10324E-04  5785   0.290E-02    0.257E-02
RMM:   5    -0.919373809132E+02    0.21500E-05   -0.36496E-05  4630   0.154E-02
  53 F= -.95003239E+02 E0= -.94998706E+02  d E =-.123106E-02
       N       E                     dE             d eps       ncg     rms          rms(c)
DAV:   1    -0.919373999183E+02   -0.16855E-04   -0.91120E-04  7104   0.812E-02    0.113E-02
RMM:   2    -0.919373998553E+02    0.62995E-07   -0.33950E-05  4144   0.175E-02
  54 F= -.95003244E+02 E0= -.94998709E+02  d E =-.123526E-02
       N       E                     dE             d eps       ncg     rms          rms(c)
DAV:   1    -0.919377553575E+02   -0.35544E-03   -0.11325E-02  5728   0.273E-01    0.309E-02
RMM:   2    -0.919377879894E+02   -0.32632E-04   -0.35835E-04  5772   0.628E-02    0.173E-02
RMM:   3    -0.919377979022E+02   -0.99128E-05   -0.10653E-04  6127   0.340E-02    0.968E-03
RMM:   4    -0.919377993448E+02   -0.14427E-05   -0.18309E-05  3346   0.152E-02
  55 F= -.95003582E+02 E0= -.94999069E+02  d E =-.338352E-03
       N       E                     dE             d eps       ncg     rms          rms(c)
DAV:   1    -0.919383849489E+02   -0.58705E-03   -0.10173E-01  5504   0.818E-01    0.954E-02
RMM:   2    -0.919386995711E+02   -0.31462E-03   -0.32398E-03  5948   0.190E-01    0.505E-02
RMM:   3    -0.919388664293E+02   -0.16686E-03   -0.94342E-04  7739   0.104E-01    0.688E-02
RMM:   4    -0.919387746731E+02    0.91756E-04   -0.13275E-04  6899   0.375E-02    0.322E-02
RMM:   5    -0.919387785686E+02   -0.38955E-05   -0.38270E-05  4689   0.180E-02
  56 F= -.95004379E+02 E0= -.94999945E+02  d E =-.113518E-02
       N       E                     dE             d eps       ncg     rms          rms(c)
DAV:   1    -0.919382187271E+02    0.55595E-03   -0.40549E-01  5440   0.163E+00    0.192E-01
RMM:   2    -0.919394107159E+02   -0.11920E-02   -0.12762E-02  6070   0.380E-01    0.991E-02
RMM:   3    -0.919400314576E+02   -0.62074E-03   -0.36744E-03  7936   0.207E-01    0.119E-01
RMM:   4    -0.919397592759E+02    0.27218E-03   -0.52887E-04  7868   0.735E-02    0.586E-02
RMM:   5    -0.919397716238E+02   -0.12348E-04   -0.12115E-04  6644   0.310E-02    0.422E-02
RMM:   6    -0.919397692452E+02    0.23786E-05   -0.62168E-05  5286   0.190E-02
  57 F= -.95005009E+02 E0= -.95000712E+02  d E =-.176533E-02
       N       E                     dE             d eps       ncg     rms          rms(c)
DAV:   1    -0.919400401839E+02   -0.26856E-03   -0.74740E-02  5872   0.686E-01    0.693E-02
RMM:   2    -0.919402432456E+02   -0.20306E-03   -0.23297E-03  5903   0.146E-01    0.361E-02
RMM:   3    -0.919403113115E+02   -0.68066E-04   -0.58961E-04  7505   0.789E-02    0.325E-02
RMM:   4    -0.919402995503E+02    0.11761E-04   -0.98373E-05  6256   0.293E-02    0.228E-02
RMM:   5    -0.919402990824E+02    0.46790E-06   -0.30001E-05  4107   0.146E-02
  58 F= -.95005276E+02 E0= -.95001031E+02  d E =-.266601E-03
       N       E                     dE             d eps       ncg     rms          rms(c)
DAV:   1    -0.919402703631E+02    0.29187E-04   -0.94972E-04  6336   0.814E-02    0.621E-03
RMM:   2    -0.919402745268E+02   -0.41637E-05   -0.37640E-05  3691   0.177E-02
  59 F= -.95005280E+02 E0= -.95001029E+02  d E =-.271090E-03
       N       E                     dE             d eps       ncg     rms          rms(c)
DAV:   1    -0.919407957275E+02   -0.52536E-03   -0.62718E-02  5696   0.619E-01    0.556E-02
RMM:   2    -0.919409425921E+02   -0.14686E-03   -0.15614E-03  5706   0.142E-01    0.254E-02
RMM:   3    -0.919410053406E+02   -0.62748E-04   -0.59072E-04  7166   0.802E-02    0.186E-02
RMM:   4    -0.919410111261E+02   -0.57855E-05   -0.71820E-05  5641   0.272E-02
  60 F= -.95005691E+02 E0= -.95001498E+02  d E =-.411288E-03
       N       E                     dE             d eps       ncg     rms          rms(c)
DAV:   1    -0.919410876442E+02   -0.82304E-04   -0.50802E-01  5552   0.176E+00    0.145E-01
RMM:   2    -0.919422902647E+02   -0.12026E-02   -0.12566E-02  5915   0.404E-01    0.671E-02
RMM:   3    -0.919428307685E+02   -0.54050E-03   -0.47444E-03  7611   0.229E-01    0.676E-02
RMM:   4    -0.919428067641E+02    0.24004E-04   -0.57521E-04  7436   0.751E-02    0.632E-02
RMM:   5    -0.919428043373E+02    0.24268E-05   -0.98019E-05  6376   0.291E-02
  61 F= -.95006564E+02 E0= -.95002518E+02  d E =-.128370E-02
       N       E                     dE             d eps       ncg     rms          rms(c)
DAV:   1    -0.919383604997E+02    0.44463E-02   -0.20280E+00  5584   0.351E+00    0.328E-01
RMM:   2    -0.919430747724E+02   -0.47143E-02   -0.50027E-02  5952   0.812E-01    0.150E-01
RMM:   3    -0.919451599705E+02   -0.20852E-02   -0.18956E-02  7777   0.459E-01    0.118E-01
RMM:   4    -0.919452099871E+02   -0.50017E-04   -0.22934E-03  7721   0.150E-01    0.118E-01
RMM:   5    -0.919451475306E+02    0.62457E-04   -0.36782E-04  7842   0.573E-02    0.889E-02
RMM:   6    -0.919451552271E+02   -0.76966E-05   -0.18532E-04  5942   0.333E-02    0.369E-02
RMM:   7    -0.919451654969E+02   -0.10270E-04   -0.82846E-05  5202   0.228E-02    0.446E-02
RMM:   8    -0.919451642003E+02    0.12966E-05   -0.39411E-05  4255   0.133E-02
  62 F= -.95007089E+02 E0= -.95003344E+02  d E =-.180906E-02
       N       E                     dE             d eps       ncg     rms          rms(c)
DAV:   1    -0.919456865734E+02   -0.52108E-03   -0.17657E-01  6064   0.107E+00    0.740E-02
RMM:   2    -0.919460635248E+02   -0.37695E-03   -0.40231E-03  5940   0.234E-01    0.345E-02
RMM:   3    -0.919462246833E+02   -0.16116E-03   -0.15426E-03  7407   0.132E-01    0.357E-02
RMM:   4    -0.919462337209E+02   -0.90376E-05   -0.18517E-04  6633   0.434E-02    0.378E-02
RMM:   5    -0.919462345373E+02   -0.81640E-06   -0.45944E-05  4631   0.202E-02
  63 F= -.95007614E+02 E0= -.95003922E+02  d E =-.525296E-03
       N       E                     dE             d eps       ncg     rms          rms(c)
DAV:   1    -0.919445876312E+02    0.16461E-02   -0.12950E+00  5544   0.289E+00    0.225E-01
RMM:   2    -0.919472621017E+02   -0.26745E-02   -0.28991E-02  5999   0.637E-01    0.105E-01
RMM:   3    -0.919484575153E+02   -0.11954E-02   -0.11347E-02  7707   0.359E-01    0.928E-02
RMM:   4    -0.919485203935E+02   -0.62878E-04   -0.12771E-03  7680   0.114E-01    0.946E-02
RMM:   5    -0.919485038779E+02    0.16516E-04   -0.23093E-04  7279   0.435E-02    0.839E-02
RMM:   6    -0.919485095000E+02   -0.56220E-05   -0.94283E-05  5363   0.243E-02
  64 F= -.95008415E+02 E0= -.95004861E+02  d E =-.132537E-02
       N       E                     dE             d eps       ncg     rms          rms(c)
DAV:   1    -0.919491577140E+02   -0.65384E-03   -0.12216E-01  5944   0.899E-01    0.122E-01
RMM:   2    -0.919494024014E+02   -0.24469E-03   -0.28431E-03  5964   0.184E-01    0.614E-02
RMM:   3    -0.919496013020E+02   -0.19890E-03   -0.94573E-04  7299   0.103E-01    0.571E-02
RMM:   4    -0.919494927144E+02    0.10859E-03   -0.12785E-04  6447   0.369E-02    0.175E-02
RMM:   5    -0.919494937190E+02   -0.10047E-05   -0.38372E-05  4504   0.186E-02
  65 F= -.95008973E+02 E0= -.95005427E+02  d E =-.558377E-03
       N       E                     dE             d eps       ncg     rms          rms(c)
DAV:   1    -0.919496762670E+02   -0.18355E-03   -0.30776E-01  5472   0.143E+00    0.114E-01
RMM:   2    -0.919503187818E+02   -0.64251E-03   -0.71540E-03  6014   0.291E-01    0.552E-02
RMM:   3    -0.919506039718E+02   -0.28519E-03   -0.22091E-03  7419   0.158E-01    0.643E-02
RMM:   4    -0.919505222022E+02    0.81770E-04   -0.27231E-04  6972   0.539E-02    0.415E-02
RMM:   5    -0.919505236325E+02   -0.14303E-05   -0.62564E-05  5471   0.235E-02
  66 F= -.95009332E+02 E0= -.95005796E+02  d E =-.917725E-03
       N       E                     dE             d eps       ncg     rms          rms(c)
DAV:   1    -0.919509831213E+02   -0.46092E-03   -0.73005E-02  5744   0.711E-01    0.641E-02
RMM:   2    -0.919511406598E+02   -0.15754E-03   -0.17777E-03  5946   0.146E-01    0.338E-02
RMM:   3    -0.919512234499E+02   -0.82790E-04   -0.54364E-04  7412   0.798E-02    0.400E-02
RMM:   4    -0.919511885509E+02    0.34899E-04   -0.81040E-05  6083   0.292E-02    0.217E-02
RMM:   5    -0.919511896435E+02   -0.10926E-05   -0.25501E-05  4010   0.146E-02
  67 F= -.95009648E+02 E0= -.95006100E+02  d E =-.315379E-03
       N       E                     dE             d eps       ncg     rms          rms(c)
DAV:   1    -0.919511461247E+02    0.42426E-04   -0.40004E-01  5440   0.166E+00    0.137E-01
RMM:   2    -0.919520358670E+02   -0.88974E-03   -0.97977E-03  6026   0.340E-01    0.710E-02
RMM:   3    -0.919524242423E+02   -0.38838E-03   -0.28719E-03  7666   0.183E-01    0.793E-02
RMM:   4    -0.919523021225E+02    0.12212E-03   -0.39009E-04  7397   0.642E-02    0.491E-02
RMM:   5    -0.919523023869E+02   -0.26434E-06   -0.81337E-05  5888   0.270E-02
  68 F= -.95009944E+02 E0= -.95006368E+02  d E =-.611370E-03
       N       E                     dE             d eps       ncg     rms          rms(c)
DAV:   1    -0.919527720285E+02   -0.46991E-03   -0.73963E-02  5880   0.707E-01    0.679E-02
RMM:   2    -0.919529207400E+02   -0.14871E-03   -0.17660E-03  5974   0.147E-01    0.355E-02
RMM:   3    -0.919529943585E+02   -0.73618E-04   -0.56214E-04  7486   0.811E-02    0.326E-02
RMM:   4    -0.919529796485E+02    0.14710E-04   -0.80654E-05  6171   0.293E-02    0.226E-02
RMM:   5    -0.919529794663E+02    0.18215E-06   -0.27752E-05  4085   0.148E-02
  69 F= -.95010261E+02 E0= -.95006666E+02  d E =-.317599E-03
       N       E                     dE             d eps       ncg     rms          rms(c)
DAV:   1    -0.919525675796E+02    0.41207E-03   -0.66981E-01  5440   0.212E+00    0.187E-01
RMM:   2    -0.919539534540E+02   -0.13859E-02   -0.15972E-02  6046   0.439E-01    0.975E-02
RMM:   3    -0.919545076664E+02   -0.55421E-03   -0.48596E-03  7781   0.237E-01    0.806E-02
RMM:   4    -0.919544597434E+02    0.47923E-04   -0.64139E-04  7639   0.815E-02    0.636E-02
RMM:   5    -0.919544430293E+02    0.16714E-04   -0.13452E-04  6466   0.333E-02    0.463E-02
RMM:   6    -0.919544489853E+02   -0.59559E-05   -0.69468E-05  5227   0.208E-02
  70 F= -.95010655E+02 E0= -.95006997E+02  d E =-.711549E-03
       N       E                     dE             d eps       ncg     rms          rms(c)
DAV:   1    -0.919549292641E+02   -0.48623E-03   -0.17456E-01  5624   0.105E+00    0.944E-02
RMM:   2    -0.919552853830E+02   -0.35612E-03   -0.40025E-03  5966   0.210E-01    0.473E-02
RMM:   3    -0.919554237345E+02   -0.13835E-03   -0.11740E-03  7503   0.113E-01    0.386E-02
RMM:   4    -0.919554063936E+02    0.17341E-04   -0.15017E-04  6611   0.391E-02    0.293E-02
RMM:   5    -0.919554031966E+02    0.31970E-05   -0.44537E-05  4739   0.190E-02
  71 F= -.95011102E+02 E0= -.95007396E+02  d E =-.447010E-03
       N       E                     dE             d eps       ncg     rms          rms(c)
DAV:   1    -0.919545793678E+02    0.82703E-03   -0.93488E-01  5440   0.242E+00    0.209E-01
RMM:   2    -0.919564909409E+02   -0.19116E-02   -0.21259E-02  6047   0.488E-01    0.108E-01
RMM:   3    -0.919571852053E+02   -0.69426E-03   -0.62629E-03  7668   0.261E-01    0.891E-02
RMM:   4    -0.919571097411E+02    0.75464E-04   -0.77659E-04  7665   0.890E-02    0.704E-02
RMM:   5    -0.919570848196E+02    0.24921E-04   -0.16775E-04  6633   0.362E-02    0.490E-02
RMM:   6    -0.919570892215E+02   -0.44019E-05   -0.91590E-05  5219   0.233E-02
  72 F= -.95011619E+02 E0= -.95007806E+02  d E =-.964220E-03
       N       E                     dE             d eps       ncg     rms          rms(c)
DAV:   1    -0.919576324085E+02   -0.54759E-03   -0.71856E-02  6160   0.685E-01    0.674E-02
RMM:   2    -0.919577789335E+02   -0.14652E-03   -0.16623E-03  5892   0.144E-01    0.335E-02
RMM:   3    -0.919578394287E+02   -0.60495E-04   -0.55645E-04  7451   0.791E-02    0.205E-02
RMM:   4    -0.919578445973E+02   -0.51686E-05   -0.81022E-05  5893   0.275E-02
  73 F= -.95012041E+02 E0= -.95008208E+02  d E =-.421852E-03
       N       E                     dE             d eps       ncg     rms          rms(c)
DAV:   1    -0.919577181384E+02    0.12129E-03   -0.64687E-01  5440   0.205E+00    0.178E-01
RMM:   2    -0.919590653971E+02   -0.13473E-02   -0.14770E-02  5996   0.430E-01    0.940E-02
RMM:   3    -0.919595411059E+02   -0.47571E-03   -0.49020E-03  7632   0.235E-01    0.622E-02
RMM:   4    -0.919596105707E+02   -0.69465E-04   -0.61326E-04  7481   0.773E-02    0.667E-02
RMM:   5    -0.919595700623E+02    0.40508E-04   -0.11490E-04  6322   0.315E-02    0.500E-02
RMM:   6    -0.919595728839E+02   -0.28216E-05   -0.69918E-05  5062   0.212E-02
  74 F= -.95012776E+02 E0= -.95008862E+02  d E =-.115619E-02
       N       E                     dE             d eps       ncg     rms          rms(c)
DAV:   1    -0.919533136737E+02    0.62564E-02   -0.25870E+00  5440   0.410E+00    0.368E-01
RMM:   2    -0.919587189097E+02   -0.54052E-02   -0.59446E-02  6026   0.867E-01    0.189E-01
RMM:   3    -0.919607122513E+02   -0.19933E-02   -0.19869E-02  7819   0.472E-01    0.121E-01
RMM:   4    -0.919609414658E+02   -0.22921E-03   -0.24810E-03  7890   0.156E-01    0.129E-01
RMM:   5    -0.919607712004E+02    0.17027E-03   -0.43164E-04  7816   0.599E-02    0.936E-02
RMM:   6    -0.919607784580E+02   -0.72577E-05   -0.25553E-04  5879   0.386E-02    0.433E-02
RMM:   7    -0.919607865866E+02   -0.81286E-05   -0.90850E-05  5289   0.253E-02
  75 F= -.95012019E+02 E0= -.95007963E+02  d E =-.399726E-03
       N       E                     dE             d eps       ncg     rms          rms(c)
DAV:   1    -0.919561059418E+02    0.46725E-02   -0.14464E+00  5464   0.307E+00    0.276E-01
RMM:   2    -0.919590444379E+02   -0.29385E-02   -0.32412E-02  5979   0.635E-01    0.142E-01
RMM:   3    -0.919601189085E+02   -0.10745E-02   -0.10728E-02  7664   0.346E-01    0.873E-02
RMM:   4    -0.919602630034E+02   -0.14409E-03   -0.13220E-03  7607   0.112E-01    0.978E-02
RMM:   5    -0.919601581259E+02    0.10488E-03   -0.20187E-04  7210   0.418E-02    0.680E-02
RMM:   6    -0.919601647498E+02   -0.66239E-05   -0.14725E-04  5216   0.278E-02    0.423E-02
RMM:   7    -0.919601644854E+02    0.26436E-06   -0.29737E-05  4874   0.159E-02
  76 F= -.95012869E+02 E0= -.95008923E+02  d E =-.125004E-02
       N       E                     dE             d eps       ncg     rms          rms(c)
DAV:   1    -0.919605008892E+02   -0.33614E-03   -0.24785E-01  5632   0.123E+00    0.111E-01
RMM:   2    -0.919609229128E+02   -0.42202E-03   -0.47435E-03  5859   0.251E-01    0.547E-02
RMM:   3    -0.919611101212E+02   -0.18721E-03   -0.17371E-03  7205   0.138E-01    0.379E-02
RMM:   4    -0.919611108393E+02   -0.71809E-06   -0.19057E-04  6516   0.434E-02    0.368E-02
RMM:   5    -0.919611034611E+02    0.73782E-05   -0.36084E-05  4557   0.210E-02
  77 F= -.95013278E+02 E0= -.95009297E+02  d E =-.408778E-03
       N       E                     dE             d eps       ncg     rms          rms(c)
DAV:   1    -0.919607223564E+02    0.38848E-03   -0.65211E-01  5472   0.200E+00    0.182E-01
RMM:   2    -0.919618499015E+02   -0.11275E-02   -0.12714E-02  5959   0.411E-01    0.908E-02
RMM:   3    -0.919622956964E+02   -0.44579E-03   -0.47106E-03  7446   0.227E-01    0.496E-02
RMM:   4    -0.919623362989E+02   -0.40602E-04   -0.50876E-04  7229   0.711E-02    0.471E-02
RMM:   5    -0.919623484790E+02   -0.12180E-04   -0.93895E-05  6006   0.289E-02    0.365E-02
RMM:   6    -0.919623476438E+02    0.83520E-06   -0.42922E-05  4850   0.168E-02
  78 F= -.95013666E+02 E0= -.95009625E+02  d E =-.796921E-03
       N       E                     dE             d eps       ncg     rms          rms(c)
DAV:   1    -0.919571324226E+02    0.52161E-02   -0.26104E+00  5472   0.401E+00    0.356E-01
RMM:   2    -0.919617791706E+02   -0.46467E-02   -0.51817E-02  6004   0.830E-01    0.175E-01
RMM:   3    -0.919636395834E+02   -0.18604E-02   -0.19068E-02  7723   0.459E-01    0.107E-01
RMM:   4    -0.919638771008E+02   -0.23752E-03   -0.21695E-03  7611   0.144E-01    0.120E-01
RMM:   5    -0.919637573552E+02    0.11975E-03   -0.38215E-04  7729   0.560E-02    0.932E-02
RMM:   6    -0.919637650555E+02   -0.77004E-05   -0.20274E-04  5651   0.352E-02    0.377E-02
RMM:   7    -0.919637720467E+02   -0.69912E-05   -0.10053E-04  5247   0.270E-02    0.286E-02
RMM:   8    -0.919637727861E+02   -0.73940E-06   -0.40198E-05  4620   0.138E-02
  79 F= -.95013393E+02 E0= -.95009260E+02  d E =-.523852E-03
       N       E                     dE             d eps       ncg     rms          rms(c)
DAV:   1    -0.919596279364E+02    0.41441E-02   -0.13190E+00  5488   0.285E+00    0.249E-01
RMM:   2    -0.919619217302E+02   -0.22938E-02   -0.25542E-02  5954   0.580E-01    0.123E-01
RMM:   3    -0.919628168754E+02   -0.89515E-03   -0.93099E-03  7447   0.317E-01    0.712E-02
RMM:   4    -0.919629193696E+02   -0.10249E-03   -0.10058E-03  7361   0.980E-02    0.734E-02
RMM:   5    -0.919629006634E+02    0.18706E-04   -0.16916E-04  6980   0.380E-02    0.637E-02
RMM:   6    -0.919629026681E+02   -0.20047E-05   -0.62350E-05  5218   0.212E-02
  80 F= -.95013733E+02 E0= -.95009675E+02  d E =-.863952E-03
       N       E                     dE             d eps       ncg     rms          rms(c)
DAV:   1    -0.919632181972E+02   -0.31753E-03   -0.11224E-01  5696   0.784E-01    0.557E-02
RMM:   2    -0.919633853922E+02   -0.16719E-03   -0.19750E-03  5823   0.147E-01    0.305E-02
RMM:   3    -0.919634382138E+02   -0.52822E-04   -0.67759E-04  6856   0.811E-02    0.257E-02
RMM:   4    -0.919634424491E+02   -0.42353E-05   -0.68199E-05  5397   0.256E-02
  81 F= -.95014095E+02 E0= -.95010025E+02  d E =-.361428E-03
       N       E                     dE             d eps       ncg     rms          rms(c)
DAV:   1    -0.919634162089E+02    0.22005E-04   -0.26250E-01  5568   0.120E+00    0.103E-01
RMM:   2    -0.919637949627E+02   -0.37875E-03   -0.44742E-03  5879   0.225E-01    0.531E-02
RMM:   3    -0.919639437516E+02   -0.14879E-03   -0.16039E-03  7198   0.125E-01    0.386E-02
RMM:   4    -0.919639443209E+02   -0.56926E-06   -0.16126E-04  6287   0.389E-02    0.379E-02
RMM:   5    -0.919639388966E+02    0.54243E-05   -0.40731E-05  4691   0.179E-02
  82 F= -.95014312E+02 E0= -.95010230E+02  d E =-.578826E-03
       N       E                     dE             d eps       ncg     rms          rms(c)
DAV:   1    -0.919642258614E+02   -0.28154E-03   -0.44348E-02  6096   0.516E-01    0.544E-02
RMM:   2    -0.919642950124E+02   -0.69151E-04   -0.78530E-04  5821   0.102E-01    0.282E-02
RMM:   3    -0.919643464119E+02   -0.51400E-04   -0.31750E-04  7057   0.583E-02    0.276E-02
RMM:   4    -0.919643260529E+02    0.20359E-04   -0.47034E-05  4903   0.211E-02    0.147E-02
RMM:   5    -0.919643262077E+02   -0.15480E-06   -0.12846E-05  3468   0.117E-02
  83 F= -.95014624E+02 E0= -.95010548E+02  d E =-.312205E-03
       N       E                     dE             d eps       ncg     rms          rms(c)
DAV:   1    -0.919643706850E+02   -0.44632E-04   -0.40087E-01  5440   0.155E+00    0.138E-01
RMM:   2    -0.919650124055E+02   -0.64172E-03   -0.70592E-03  5985   0.304E-01    0.697E-02
RMM:   3    -0.919652861493E+02   -0.27374E-03   -0.27513E-03  7465   0.171E-01    0.467E-02
RMM:   4    -0.919652959085E+02   -0.97592E-05   -0.32260E-04  6902   0.559E-02    0.479E-02
RMM:   5    -0.919652899489E+02    0.59596E-05   -0.74688E-05  5570   0.251E-02
  84 F= -.95015365E+02 E0= -.95011305E+02  d E =-.105243E-02
       N       E                     dE             d eps       ncg     rms          rms(c)
DAV:   1    -0.919627245496E+02    0.25714E-02   -0.16031E+00  5440   0.310E+00    0.286E-01
RMM:   2    -0.919652918274E+02   -0.25673E-02   -0.28298E-02  6062   0.613E-01    0.145E-01
RMM:   3    -0.919663347135E+02   -0.10429E-02   -0.11125E-02  7687   0.345E-01    0.849E-02
RMM:   4    -0.919664496093E+02   -0.11490E-03   -0.13173E-03  7599   0.112E-01    0.936E-02
RMM:   5    -0.919664013469E+02    0.48262E-04   -0.26955E-04  7084   0.434E-02    0.753E-02
RMM:   6    -0.919664080714E+02   -0.67245E-05   -0.89084E-05  5430   0.253E-02
  85 F= -.95016044E+02 E0= -.95012018E+02  d E =-.173174E-02
       N       E                     dE             d eps       ncg     rms          rms(c)
DAV:   1    -0.919664928503E+02   -0.91503E-04   -0.23043E-01  6024   0.115E+00    0.129E-01
RMM:   2    -0.919668336781E+02   -0.34083E-03   -0.39163E-03  5930   0.225E-01    0.654E-02
RMM:   3    -0.919670804061E+02   -0.24673E-03   -0.15881E-03  7476   0.129E-01    0.555E-02
RMM:   4    -0.919669924312E+02    0.87975E-04   -0.20154E-04  6682   0.436E-02    0.304E-02
RMM:   5    -0.919669937995E+02   -0.13683E-05   -0.56403E-05  4945   0.210E-02
  86 F= -.95016515E+02 E0= -.95012511E+02  d E =-.470718E-03
       N       E                     dE             d eps       ncg     rms          rms(c)
DAV:   1    -0.919668142982E+02    0.17813E-03   -0.23793E-01  5584   0.117E+00    0.110E-01
RMM:   2    -0.919671591453E+02   -0.34485E-03   -0.40649E-03  5890   0.229E-01    0.568E-02
RMM:   3    -0.919673514811E+02   -0.19234E-03   -0.16157E-03  7369   0.129E-01    0.456E-02
RMM:   4    -0.919673192336E+02    0.32247E-04   -0.19769E-04  6564   0.434E-02    0.367E-02
RMM:   5    -0.919673186906E+02    0.54303E-06   -0.52674E-05  4804   0.205E-02
  87 F= -.95016725E+02 E0= -.95012741E+02  d E =-.680870E-03
