       N       E                     dE             d eps       ncg     rms          rms(c)
DAV:   1     0.295407383710E+04    0.29541E+04   -0.89730E+04  7024   0.230E+03
DAV:   2     0.603275741681E+03   -0.23508E+04   -0.22519E+04  5632   0.760E+02
DAV:   3    -0.459456367703E+01   -0.60787E+03   -0.57850E+03  6560   0.270E+02
DAV:   4    -0.959327344739E+02   -0.91338E+02   -0.88341E+02  7816   0.106E+02
DAV:   5    -0.103095716923E+03   -0.71630E+01   -0.68438E+01  8240   0.293E+01    0.275E+01
DAV:   6    -0.108758505485E+03   -0.56628E+01   -0.97132E+01  8488   0.335E+01    0.347E+01
DAV:   7    -0.994428431474E+02    0.93157E+01   -0.13553E+02  7456   0.328E+01    0.187E+01
DAV:   8    -0.987227429584E+02    0.72010E+00   -0.24633E+01  7896   0.158E+01    0.169E+01
DAV:   9    -0.969880092968E+02    0.17347E+01   -0.15263E+01  7128   0.121E+01    0.112E+01
DAV:  10    -0.945376732938E+02    0.24503E+01   -0.55966E+00  7224   0.834E+00    0.400E+00
DAV:  11    -0.943795227632E+02    0.15815E+00   -0.15886E+00  8248   0.407E+00    0.298E+00
DAV:  12    -0.942807404641E+02    0.98782E-01   -0.40677E-01  7552   0.206E+00    0.160E+00
DAV:  13    -0.942876146165E+02   -0.68742E-02   -0.12491E-01  9216   0.121E+00    0.150E+00
DAV:  14    -0.942780799667E+02    0.95346E-02   -0.12971E-01  7120   0.161E+00    0.704E-01
DAV:  15    -0.942708073324E+02    0.72726E-02   -0.33556E-02  7312   0.778E-01    0.278E-01
DAV:  16    -0.942700270037E+02    0.78033E-03   -0.43735E-03  7856   0.279E-01    0.156E-01
DAV:  17    -0.942700397822E+02   -0.12779E-04   -0.38973E-03  6960   0.220E-01    0.192E-01
DAV:  18    -0.942694569106E+02    0.58287E-03   -0.79380E-04  7152   0.160E-01    0.627E-02
DAV:  19    -0.942694652101E+02   -0.82995E-05   -0.29940E-04  6360   0.528E-02    0.403E-02
DAV:  20    -0.942697880938E+02   -0.32288E-03   -0.22075E-04  6160   0.519E-02    0.424E-02
DAV:  21    -0.942702269950E+02   -0.43890E-03   -0.14589E-04  4888   0.422E-02    0.247E-02
DAV:  22    -0.942704219360E+02   -0.19494E-03   -0.49663E-05  5760   0.278E-02    0.107E-02
DAV:  23    -0.942707428302E+02   -0.32089E-03   -0.29854E-05  4864   0.191E-02    0.686E-03
DAV:  24    -0.942708773239E+02   -0.13449E-03   -0.77063E-06  4416   0.172E-02    0.719E-03
DAV:  25    -0.942710787275E+02   -0.20140E-03   -0.11765E-05  4312   0.108E-02    0.366E-03
DAV:  26    -0.942711414045E+02   -0.62677E-04   -0.40742E-06  4296   0.941E-03    0.305E-03
DAV:  27    -0.942711674504E+02   -0.26046E-04   -0.19151E-06  3856   0.759E-03    0.128E-03
DAV:  28    -0.942711774367E+02   -0.99864E-05   -0.12338E-06  3632   0.472E-03
   1 F= -.97269094E+02 E0= -.97272733E+02  d E =-.972691E+02
       N       E                     dE             d eps       ncg     rms          rms(c)
DAV:   1    -0.942630389307E+02    0.81285E-02   -0.95885E+00  5464   0.746E+00    0.717E-01
DAV:   2    -0.942914119794E+02   -0.28373E-01   -0.32339E-01  7584   0.159E+00    0.404E-01
DAV:   3    -0.942926651315E+02   -0.12532E-02   -0.27078E-02  8160   0.480E-01    0.284E-01
DAV:   4    -0.942957162136E+02   -0.30511E-02   -0.14509E-02  7440   0.564E-01    0.472E-01
DAV:   5    -0.942924642725E+02    0.32519E-02   -0.95891E-03  7120   0.444E-01    0.120E-01
DAV:   6    -0.942923801531E+02    0.84119E-04   -0.89582E-04  6664   0.177E-01    0.523E-02
DAV:   7    -0.942923667409E+02    0.13412E-04   -0.40823E-04  7360   0.151E-01    0.308E-02
DAV:   8    -0.942923604611E+02    0.62798E-05   -0.13584E-04  5904   0.697E-02    0.215E-02
DAV:   9    -0.942923582627E+02    0.21983E-05   -0.31454E-05  5192   0.441E-02
   2 F= -.97289726E+02 E0= -.97293448E+02  d E =-.206326E-01
       N       E                     dE             d eps       ncg     rms          rms(c)
DAV:   1    -0.942927081114E+02   -0.34765E-03   -0.48388E-01  5520   0.167E+00    0.159E-01
DAV:   2    -0.942941196523E+02   -0.14115E-02   -0.16428E-02  7432   0.352E-01    0.939E-02
DAV:   3    -0.942941719849E+02   -0.52333E-04   -0.13404E-03  7712   0.127E-01    0.679E-02
DAV:   4    -0.942942969111E+02   -0.12493E-03   -0.64615E-04  6912   0.167E-01    0.820E-02
DAV:   5    -0.942941970112E+02    0.99900E-04   -0.53247E-04  6568   0.117E-01    0.470E-02
DAV:   6    -0.942941824134E+02    0.14598E-04   -0.97511E-05  5560   0.598E-02    0.251E-02
DAV:   7    -0.942941796010E+02    0.28124E-05   -0.57434E-05  6016   0.466E-02
   3 F= -.97291669E+02 E0= -.97295381E+02  d E =-.225757E-01
       N       E                     dE             d eps       ncg     rms          rms(c)
DAV:   1    -0.943023596578E+02   -0.81772E-02   -0.17801E+00  5464   0.332E+00    0.258E-01
DAV:   2    -0.943082337066E+02   -0.58740E-02   -0.63586E-02  7520   0.731E-01    0.170E-01
DAV:   3    -0.943084058741E+02   -0.17217E-03   -0.40734E-03  7928   0.332E-01    0.141E-01
DAV:   4    -0.943084078851E+02   -0.20109E-05   -0.15159E-03  7232   0.284E-01    0.113E-01
DAV:   5    -0.943084686962E+02   -0.60811E-04   -0.12213E-03  6624   0.211E-01    0.110E-01
DAV:   6    -0.943083764407E+02    0.92255E-04   -0.98266E-04  6976   0.119E-01    0.744E-02
DAV:   7    -0.943083214848E+02    0.54956E-04   -0.23328E-04  6904   0.638E-02    0.211E-02
DAV:   8    -0.943083138018E+02    0.76831E-05   -0.24760E-05  4592   0.287E-02
   4 F= -.97305668E+02 E0= -.97309505E+02  d E =-.139986E-01
       N       E                     dE             d eps       ncg     rms          rms(c)
DAV:   1    -0.943084785673E+02   -0.15708E-03   -0.83590E-01  5456   0.228E+00    0.179E-01
DAV:   2    -0.943112935857E+02   -0.28150E-02   -0.30343E-02  7560   0.504E-01    0.117E-01
DAV:   3    -0.943113731603E+02   -0.79575E-04   -0.19276E-03  7816   0.241E-01    0.978E-02
DAV:   4    -0.943113513480E+02    0.21812E-04   -0.65789E-04  6888   0.183E-01    0.763E-02
DAV:   5    -0.943113215564E+02    0.29792E-04   -0.23453E-04  6408   0.920E-02    0.316E-02
DAV:   6    -0.943113281372E+02   -0.65808E-05   -0.11579E-04  6960   0.535E-02    0.175E-02
DAV:   7    -0.943113244639E+02    0.36733E-05   -0.25868E-05  4624   0.330E-02
   5 F= -.97308593E+02 E0= -.97312526E+02  d E =-.169232E-01
       N       E                     dE             d eps       ncg     rms          rms(c)
DAV:   1    -0.943150087271E+02   -0.36806E-02   -0.18005E-01  5472   0.118E+00    0.106E-01
DAV:   2    -0.943155009010E+02   -0.49217E-03   -0.57439E-03  7504   0.246E-01    0.608E-02
DAV:   3    -0.943154890261E+02    0.11875E-04   -0.24000E-04  7584   0.680E-02    0.388E-02
DAV:   4    -0.943155377198E+02   -0.48694E-04   -0.22030E-04  6280   0.786E-02    0.552E-02
DAV:   5    -0.943154958549E+02    0.41865E-04   -0.17511E-04  5360   0.578E-02    0.200E-02
DAV:   6    -0.943154956882E+02    0.16670E-06   -0.17590E-05  4472   0.196E-02
   6 F= -.97312685E+02 E0= -.97316604E+02  d E =-.409236E-02
       N       E                     dE             d eps       ncg     rms          rms(c)
DAV:   1    -0.943224047486E+02   -0.69089E-02   -0.16155E+00  5464   0.354E+00    0.318E-01
DAV:   2    -0.943269045226E+02   -0.44998E-02   -0.52134E-02  7416   0.734E-01    0.185E-01
DAV:   3    -0.943270835136E+02   -0.17899E-03   -0.35282E-03  7952   0.254E-01    0.180E-01
DAV:   4    -0.943271018884E+02   -0.18375E-04   -0.32092E-03  7088   0.245E-01    0.162E-01
DAV:   5    -0.943268208189E+02    0.28107E-03   -0.91797E-04  6912   0.141E-01    0.469E-02
DAV:   6    -0.943268460986E+02   -0.25280E-04   -0.17164E-04  6488   0.781E-02    0.291E-02
DAV:   7    -0.943268315825E+02    0.14516E-04   -0.95155E-05  5728   0.673E-02    0.130E-02
DAV:   8    -0.943268282314E+02    0.33511E-05   -0.27719E-05  4152   0.377E-02
   7 F= -.97323782E+02 E0= -.97327674E+02  d E =-.151892E-01
       N       E                     dE             d eps       ncg     rms          rms(c)
DAV:   1    -0.943256686382E+02    0.11629E-02   -0.64494E+00  5464   0.708E+00    0.644E-01
DAV:   2    -0.943444143727E+02   -0.18746E-01   -0.21604E-01  7224   0.149E+00    0.370E-01
DAV:   3    -0.943451324495E+02   -0.71808E-03   -0.14327E-02  7936   0.461E-01    0.363E-01
DAV:   4    -0.943452542654E+02   -0.12182E-03   -0.12105E-02  7304   0.408E-01    0.327E-01
DAV:   5    -0.943441941574E+02    0.10601E-02   -0.39740E-03  7104   0.344E-01    0.105E-01
DAV:   6    -0.943444003656E+02   -0.20621E-03   -0.17786E-03  6872   0.273E-01    0.863E-02
DAV:   7    -0.943441723051E+02    0.22806E-03   -0.95603E-04  6456   0.215E-01    0.241E-02
DAV:   8    -0.943441649750E+02    0.73300E-05   -0.11679E-04  6584   0.654E-02    0.122E-02
DAV:   9    -0.943441676143E+02   -0.26392E-05   -0.34890E-05  5544   0.360E-02
   8 F= -.97340653E+02 E0= -.97344499E+02  d E =-.320600E-01
       N       E                     dE             d eps       ncg     rms          rms(c)
DAV:   1    -0.942761083759E+02    0.68057E-01   -0.25699E+01  5480   0.142E+01    0.135E+00
DAV:   2    -0.943580134099E+02   -0.81905E-01   -0.93308E-01  7296   0.313E+00    0.750E-01
DAV:   3    -0.943595129740E+02   -0.14996E-02   -0.55658E-02  7832   0.969E-01    0.689E-01
DAV:   4    -0.943621143473E+02   -0.26014E-02   -0.44847E-02  7912   0.686E-01    0.703E-01
DAV:   5    -0.943572254142E+02    0.48889E-02   -0.18140E-02  7496   0.764E-01    0.242E-01
DAV:   6    -0.943579811299E+02   -0.75572E-03   -0.97142E-03  7200   0.669E-01    0.189E-01
DAV:   7    -0.943568655409E+02    0.11156E-02   -0.44065E-03  6880   0.455E-01    0.451E-02
DAV:   8    -0.943568608052E+02    0.47358E-05   -0.50172E-04  7424   0.117E-01    0.269E-02
DAV:   9    -0.943568688757E+02   -0.80705E-05   -0.14692E-04  6536   0.680E-02    0.181E-02
DAV:  10    -0.943568727506E+02   -0.38749E-05   -0.26200E-05  5096   0.357E-02
   9 F= -.97352414E+02 E0= -.97356133E+02  d E =-.438212E-01
       N       E                     dE             d eps       ncg     rms          rms(c)
DAV:   1    -0.943590910805E+02   -0.22222E-02   -0.91221E-02  5528   0.820E-01    0.732E-02
DAV:   2    -0.943593342625E+02   -0.24318E-03   -0.29022E-03  7240   0.171E-01    0.434E-02
DAV:   3    -0.943593578884E+02   -0.23626E-04   -0.24059E-04  6568   0.566E-02    0.500E-02
DAV:   4    -0.943593421233E+02    0.15765E-04   -0.14761E-04  6016   0.400E-02    0.315E-02
DAV:   5    -0.943593418901E+02    0.23322E-06   -0.57736E-05  4432   0.470E-02
  10 F= -.97354823E+02 E0= -.97358538E+02  d E =-.240911E-02
       N       E                     dE             d eps       ncg     rms          rms(c)
DAV:   1    -0.943639019810E+02   -0.45599E-02   -0.81883E-01  5456   0.246E+00    0.225E-01
DAV:   2    -0.943660199724E+02   -0.21180E-02   -0.25611E-02  7064   0.521E-01    0.130E-01
DAV:   3    -0.943662235167E+02   -0.20354E-03   -0.25177E-03  7672   0.266E-01    0.140E-01
DAV:   4    -0.943661176697E+02    0.10585E-03   -0.11644E-03  7128   0.127E-01    0.984E-02
DAV:   5    -0.943661523228E+02   -0.34653E-04   -0.79669E-04  6656   0.157E-01    0.653E-02
DAV:   6    -0.943660565600E+02    0.95763E-04   -0.47896E-04  6200   0.140E-01    0.235E-02
DAV:   7    -0.943660580714E+02   -0.15114E-05   -0.52228E-05  5104   0.361E-02
  11 F= -.97361355E+02 E0= -.97365028E+02  d E =-.894059E-02
       N       E                     dE             d eps       ncg     rms          rms(c)
DAV:   1    -0.943676813360E+02   -0.16248E-02   -0.32695E+00  5456   0.492E+00    0.449E-01
DAV:   2    -0.943763627734E+02   -0.86814E-02   -0.10433E-01  6904   0.102E+00    0.253E-01
DAV:   3    -0.943773771737E+02   -0.10144E-02   -0.10176E-02  7808   0.408E-01    0.300E-01
DAV:   4    -0.943768011680E+02    0.57601E-03   -0.52030E-03  7384   0.228E-01    0.188E-01
DAV:   5    -0.943767669866E+02    0.34181E-04   -0.23603E-03  6856   0.300E-01    0.103E-01
DAV:   6    -0.943765862946E+02    0.18069E-03   -0.14279E-03  6800   0.265E-01    0.502E-02
DAV:   7    -0.943765603966E+02    0.25898E-04   -0.23161E-04  5704   0.738E-02    0.127E-02
DAV:   8    -0.943765644888E+02   -0.40922E-05   -0.45275E-05  5536   0.347E-02
  12 F= -.97371470E+02 E0= -.97375054E+02  d E =-.190564E-01
       N       E                     dE             d eps       ncg     rms          rms(c)
DAV:   1    -0.943483011705E+02    0.28259E-01   -0.13018E+01  5456   0.986E+00    0.927E-01
DAV:   2    -0.943852452350E+02   -0.36944E-01   -0.43968E-01  7080   0.209E+00    0.512E-01
DAV:   3    -0.943886928161E+02   -0.34476E-02   -0.38326E-02  7536   0.826E-01    0.588E-01
DAV:   4    -0.943867797645E+02    0.19131E-02   -0.20355E-02  7528   0.447E-01    0.392E-01
DAV:   5    -0.943866515327E+02    0.12823E-03   -0.99129E-03  7408   0.616E-01    0.223E-01
DAV:   6    -0.943857668906E+02    0.88464E-03   -0.59262E-03  7200   0.545E-01    0.102E-01
DAV:   7    -0.943856987221E+02    0.68168E-04   -0.91883E-04  6832   0.146E-01    0.264E-02
DAV:   8    -0.943857119381E+02   -0.13216E-04   -0.19143E-04  6928   0.716E-02    0.187E-02
DAV:   9    -0.943857113650E+02    0.57311E-06   -0.34673E-05  5416   0.377E-02
  13 F= -.97379760E+02 E0= -.97383172E+02  d E =-.273459E-01
       N       E                     dE             d eps       ncg     rms          rms(c)
DAV:   1    -0.943911119851E+02   -0.54000E-02   -0.37265E-01  5464   0.164E+00    0.144E-01
DAV:   2    -0.943922138082E+02   -0.11018E-02   -0.12182E-02  7200   0.344E-01    0.832E-02
DAV:   3    -0.943923617171E+02   -0.14791E-03   -0.11565E-03  7744   0.128E-01    0.110E-01
DAV:   4    -0.943922529880E+02    0.10873E-03   -0.51391E-04  6496   0.773E-02    0.588E-02
DAV:   5    -0.943922694621E+02   -0.16474E-04   -0.22415E-04  6184   0.109E-01    0.387E-02
DAV:   6    -0.943922482827E+02    0.21179E-04   -0.16309E-04  5400   0.874E-02    0.189E-02
DAV:   7    -0.943922469556E+02    0.13271E-05   -0.26383E-05  4632   0.270E-02
  14 F= -.97386345E+02 E0= -.97389751E+02  d E =-.658500E-02
       N       E                     dE             d eps       ncg     rms          rms(c)
DAV:   1    -0.943976793894E+02   -0.54311E-02   -0.33416E+00  5448   0.492E+00    0.443E-01
DAV:   2    -0.944076113283E+02   -0.99319E-02   -0.11052E-01  6880   0.104E+00    0.249E-01
DAV:   3    -0.944089802957E+02   -0.13690E-02   -0.10996E-02  7872   0.412E-01    0.333E-01
DAV:   4    -0.944080105653E+02    0.96973E-03   -0.46920E-03  7360   0.228E-01    0.180E-01
DAV:   5    -0.944081230822E+02   -0.11252E-03   -0.19107E-03  7208   0.329E-01    0.119E-01
DAV:   6    -0.944079477349E+02    0.17535E-03   -0.14314E-03  6464   0.255E-01    0.606E-02
DAV:   7    -0.944079194337E+02    0.28301E-04   -0.25688E-04  6048   0.815E-02    0.162E-02
DAV:   8    -0.944079237495E+02   -0.43158E-05   -0.61768E-05  5320   0.371E-02
  15 F= -.97402164E+02 E0= -.97405541E+02  d E =-.224047E-01
       N       E                     dE             d eps       ncg     rms          rms(c)
DAV:   1    -0.943796605009E+02    0.28259E-01   -0.13325E+01  5448   0.986E+00    0.932E-01
DAV:   2    -0.944207423214E+02   -0.41082E-01   -0.45806E-01  6752   0.213E+00    0.497E-01
DAV:   3    -0.944263125117E+02   -0.55702E-02   -0.46800E-02  7920   0.868E-01    0.677E-01
DAV:   4    -0.944226405243E+02    0.36720E-02   -0.18343E-02  7640   0.438E-01    0.380E-01
DAV:   5    -0.944230238716E+02   -0.38335E-03   -0.71226E-03  7840   0.604E-01    0.258E-01
DAV:   6    -0.944224592878E+02    0.56458E-03   -0.57695E-03  6928   0.489E-01    0.142E-01
DAV:   7    -0.944223318283E+02    0.12746E-03   -0.12334E-03  6880   0.194E-01    0.397E-02
DAV:   8    -0.944223487165E+02   -0.16888E-04   -0.29419E-04  6384   0.738E-02    0.280E-02
DAV:   9    -0.944223482170E+02    0.49954E-06   -0.40600E-05  6096   0.302E-02
  16 F= -.97416898E+02 E0= -.97420200E+02  d E =-.371377E-01
       N       E                     dE             d eps       ncg     rms          rms(c)
DAV:   1    -0.944287886348E+02   -0.64399E-02   -0.38723E-01  5472   0.171E+00    0.151E-01
DAV:   2    -0.944300136098E+02   -0.12250E-02   -0.13378E-02  7232   0.367E-01    0.858E-02
DAV:   3    -0.944302090792E+02   -0.19547E-03   -0.13885E-03  7840   0.147E-01    0.123E-01
DAV:   4    -0.944300508216E+02    0.15826E-03   -0.63730E-04  6536   0.832E-02    0.508E-02
DAV:   5    -0.944300721112E+02   -0.21290E-04   -0.23869E-04  5696   0.108E-01    0.360E-02
DAV:   6    -0.944300526225E+02    0.19489E-04   -0.14122E-04  5352   0.826E-02    0.160E-02
DAV:   7    -0.944300568074E+02   -0.41848E-05   -0.25500E-05  4912   0.241E-02
  17 F= -.97424709E+02 E0= -.97427977E+02  d E =-.781148E-02
       N       E                     dE             d eps       ncg     rms          rms(c)
DAV:   1    -0.944401833790E+02   -0.10131E-01   -0.34880E+00  5456   0.514E+00    0.439E-01
DAV:   2    -0.944509719688E+02   -0.10789E-01   -0.11712E-01  6992   0.112E+00    0.262E-01
DAV:   3    -0.944526738331E+02   -0.17019E-02   -0.13119E-02  7864   0.491E-01    0.376E-01
DAV:   4    -0.944511783147E+02    0.14955E-02   -0.58349E-03  7720   0.244E-01    0.149E-01
DAV:   5    -0.944513796647E+02   -0.20135E-03   -0.24539E-03  7528   0.338E-01    0.113E-01
DAV:   6    -0.944511179869E+02    0.26168E-03   -0.12584E-03  6360   0.218E-01    0.430E-02
DAV:   7    -0.944511408339E+02   -0.22847E-04   -0.20314E-04  6200   0.553E-02    0.151E-02
DAV:   8    -0.944511430616E+02   -0.22277E-05   -0.41990E-05  5880   0.325E-02
  18 F= -.97446121E+02 E0= -.97449261E+02  d E =-.292236E-01
       N       E                     dE             d eps       ncg     rms          rms(c)
DAV:   1    -0.944400963892E+02    0.11044E-01   -0.14001E+01  5440   0.103E+01    0.883E-01
DAV:   2    -0.944839415987E+02   -0.43845E-01   -0.47214E-01  6896   0.229E+00    0.529E-01
DAV:   3    -0.944906064063E+02   -0.66648E-02   -0.52790E-02  7744   0.104E+00    0.749E-01
DAV:   4    -0.944848546165E+02    0.57518E-02   -0.24204E-02  7400   0.496E-01    0.302E-01
DAV:   5    -0.944856794725E+02   -0.82486E-03   -0.10773E-02  7824   0.729E-01    0.237E-01
DAV:   6    -0.944844567798E+02    0.12227E-02   -0.50479E-03  7280   0.412E-01    0.831E-02
DAV:   7    -0.944845732722E+02   -0.11649E-03   -0.89840E-04  7376   0.101E-01    0.368E-02
DAV:   8    -0.944845680551E+02    0.52171E-05   -0.14166E-04  7080   0.584E-02    0.232E-02
DAV:   9    -0.944845687051E+02   -0.65006E-06   -0.27922E-05  5304   0.335E-02
  19 F= -.97480314E+02 E0= -.97483156E+02  d E =-.634165E-01
       N       E                     dE             d eps       ncg     rms          rms(c)
DAV:   1    -0.943216062283E+02    0.16296E+00   -0.56341E+01  5440   0.209E+01    0.190E+00
DAV:   2    -0.945134213015E+02   -0.19182E+00   -0.20400E+00  6800   0.480E+00    0.110E+00
DAV:   3    -0.945401479600E+02   -0.26727E-01   -0.22727E-01  7736   0.220E+00    0.153E+00
DAV:   4    -0.945173616262E+02    0.22786E-01   -0.10850E-01  7136   0.107E+00    0.662E-01
DAV:   5    -0.945204257708E+02   -0.30641E-02   -0.48763E-02  8728   0.139E+00    0.537E-01
DAV:   6    -0.945148009160E+02    0.56249E-02   -0.21166E-02  7208   0.758E-01    0.194E-01
DAV:   7    -0.945153809433E+02   -0.58003E-03   -0.47400E-03  7352   0.276E-01    0.976E-02
DAV:   8    -0.945152818853E+02    0.99058E-04   -0.81816E-04  7392   0.175E-01    0.539E-02
DAV:   9    -0.945152793609E+02    0.25244E-05   -0.20504E-04  6800   0.672E-02    0.342E-02
DAV:  10    -0.945152905536E+02   -0.11193E-04   -0.60994E-05  6336   0.505E-02    0.128E-02
DAV:  11    -0.945153043424E+02   -0.13789E-04   -0.19459E-05  4728   0.270E-02    0.466E-03
DAV:  12    -0.945153117606E+02   -0.74183E-05   -0.39976E-06  3352   0.110E-02
  20 F= -.97513205E+02 E0= -.97515383E+02  d E =-.963073E-01
       N       E                     dE             d eps       ncg     rms          rms(c)
DAV:   1    -0.945159160765E+02   -0.61173E-03   -0.69478E+00  5440   0.727E+00    0.643E-01
DAV:   2    -0.945393626906E+02   -0.23447E-01   -0.24809E-01  7032   0.161E+00    0.390E-01
DAV:   3    -0.945419041063E+02   -0.25414E-02   -0.21868E-02  8016   0.597E-01    0.491E-01
DAV:   4    -0.945397702556E+02    0.21339E-02   -0.11451E-02  7440   0.357E-01    0.257E-01
DAV:   5    -0.945399736812E+02   -0.20343E-03   -0.36018E-03  7152   0.446E-01    0.161E-01
DAV:   6    -0.945396785746E+02    0.29511E-03   -0.30243E-03  6528   0.341E-01    0.868E-02
DAV:   7    -0.945395761993E+02    0.10238E-03   -0.59110E-04  6232   0.128E-01    0.170E-02
DAV:   8    -0.945395893476E+02   -0.13148E-04   -0.14383E-04  6200   0.547E-02    0.153E-02
DAV:   9    -0.945395912125E+02   -0.18649E-05   -0.19617E-05  4848   0.233E-02
  21 F= -.97538561E+02 E0= -.97540659E+02  d E =-.253561E-01
       N       E                     dE             d eps       ncg     rms          rms(c)
DAV:   1    -0.944590750527E+02    0.80514E-01   -0.30994E+01  5440   0.154E+01    0.146E+00
DAV:   2    -0.945694855429E+02   -0.11041E+00   -0.11703E+00  7040   0.351E+00    0.837E-01
DAV:   3    -0.945800064396E+02   -0.10521E-01   -0.92428E-02  8056   0.123E+00    0.102E+00
DAV:   4    -0.945723778803E+02    0.76286E-02   -0.53271E-02  7568   0.747E-01    0.611E-01
DAV:   5    -0.945722888530E+02    0.89027E-04   -0.14218E-02  7368   0.818E-01    0.360E-01
DAV:   6    -0.945718164973E+02    0.47236E-03   -0.14513E-02  7152   0.665E-01    0.218E-01
DAV:   7    -0.945709187306E+02    0.89777E-03   -0.35859E-03  7032   0.314E-01    0.440E-02
DAV:   8    -0.945709791153E+02   -0.60385E-04   -0.73087E-04  7304   0.111E-01    0.380E-02
DAV:   9    -0.945709789578E+02    0.15753E-06   -0.10656E-04  6448   0.501E-02    0.214E-02
DAV:  10    -0.945709824819E+02   -0.35242E-05   -0.31263E-05  6136   0.308E-02
  22 F= -.97572516E+02 E0= -.97574715E+02  d E =-.593116E-01
       N       E                     dE             d eps       ncg     rms          rms(c)
DAV:   1    -0.940636078920E+02    0.50737E+00   -0.12531E+02  5600   0.316E+01    0.361E+00
DAV:   2    -0.945319371316E+02   -0.46833E+00   -0.50027E+00  6688   0.731E+00    0.176E+00
DAV:   3    -0.945721935819E+02   -0.40256E-01   -0.46934E-01  8320   0.344E+00    0.181E+00
DAV:   4    -0.945620059514E+02    0.10188E-01   -0.21855E-01  7416   0.197E+00    0.146E+00
DAV:   5    -0.945548733468E+02    0.71326E-02   -0.57054E-02  8032   0.122E+00    0.866E-01
DAV:   6    -0.945604179681E+02   -0.55446E-02   -0.62973E-02  7856   0.124E+00    0.796E-01
DAV:   7    -0.945515990443E+02    0.88189E-02   -0.49207E-02  7592   0.925E-01    0.221E-01
DAV:   8    -0.945509153917E+02    0.68365E-03   -0.61418E-03  7856   0.415E-01    0.139E-01
DAV:   9    -0.945508806029E+02    0.34789E-04   -0.80757E-04  7448   0.144E-01    0.831E-02
DAV:  10    -0.945508677065E+02    0.12896E-04   -0.21977E-04  7184   0.717E-02    0.305E-02
DAV:  11    -0.945508778179E+02   -0.10111E-04   -0.76809E-05  6528   0.501E-02    0.123E-02
DAV:  12    -0.945508851209E+02   -0.73031E-05   -0.14401E-05  4120   0.272E-02
  23 F= -.97557921E+02 E0= -.97560893E+02  d E =-.447161E-01
       N       E                     dE             d eps       ncg     rms          rms(c)
DAV:   1    -0.943888316193E+02    0.16205E+00   -0.51984E+01  5440   0.199E+01    0.195E+00
DAV:   2    -0.945746595809E+02   -0.18583E+00   -0.19824E+00  7152   0.462E+00    0.117E+00
DAV:   3    -0.946014761276E+02   -0.26817E-01   -0.22161E-01  7488   0.215E+00    0.136E+00
DAV:   4    -0.945796735728E+02    0.21803E-01   -0.12399E-01  7848   0.206E+00    0.763E-01
DAV:   5    -0.945790605505E+02    0.61302E-03   -0.23051E-02  8624   0.626E-01    0.443E-01
DAV:   6    -0.945793882343E+02   -0.32768E-03   -0.27149E-02  7936   0.830E-01    0.354E-01
DAV:   7    -0.945769024960E+02    0.24857E-02   -0.94161E-03  7184   0.627E-01    0.989E-02
DAV:   8    -0.945768168898E+02    0.85606E-04   -0.13768E-03  7768   0.195E-01    0.498E-02
DAV:   9    -0.945768107435E+02    0.61463E-05   -0.25013E-04  7264   0.786E-02    0.268E-02
DAV:  10    -0.945768156014E+02   -0.48579E-05   -0.52680E-05  6072   0.388E-02
  24 F= -.97580312E+02 E0= -.97582831E+02  d E =-.671075E-01
       N       E                     dE             d eps       ncg     rms          rms(c)
DAV:   1    -0.945620963229E+02    0.14714E-01   -0.11414E+01  5440   0.920E+00    0.976E-01
DAV:   2    -0.946030911615E+02   -0.40995E-01   -0.44087E-01  7112   0.207E+00    0.619E-01
DAV:   3    -0.946074182486E+02   -0.43271E-02   -0.39785E-02  7784   0.797E-01    0.696E-01
DAV:   4    -0.946043479588E+02    0.30703E-02   -0.26792E-02  7496   0.516E-01    0.452E-01
DAV:   5    -0.946041771532E+02    0.17081E-03   -0.97017E-03  7768   0.612E-01    0.253E-01
DAV:   6    -0.946033056744E+02    0.87148E-03   -0.84024E-03  7272   0.487E-01    0.123E-01
DAV:   7    -0.946029900548E+02    0.31562E-03   -0.12991E-03  6496   0.193E-01    0.240E-02
DAV:   8    -0.946030089704E+02   -0.18916E-04   -0.24203E-04  6752   0.646E-02    0.179E-02
DAV:   9    -0.946030085125E+02    0.45782E-06   -0.39450E-05  5848   0.336E-02
  25 F= -.97607861E+02 E0= -.97610381E+02  d E =-.275488E-01
       N       E                     dE             d eps       ncg     rms          rms(c)
DAV:   1    -0.944193218166E+02    0.18369E+00   -0.56560E+01  5440   0.206E+01    0.260E+00
DAV:   2    -0.946417602430E+02   -0.22244E+00   -0.23849E+00  7272   0.480E+00    0.153E+00
DAV:   3    -0.946627845574E+02   -0.21024E-01   -0.19528E-01  7832   0.169E+00    0.166E+00
DAV:   4    -0.946510069257E+02    0.11778E-01   -0.17523E-01  7400   0.124E+00    0.122E+00
DAV:   5    -0.946464007353E+02    0.46062E-02   -0.53617E-02  7464   0.139E+00    0.636E-01
DAV:   6    -0.946425638774E+02    0.38369E-02   -0.58195E-02  7576   0.109E+00    0.336E-01
DAV:   7    -0.946395613658E+02    0.30025E-02   -0.96074E-03  7280   0.497E-01    0.656E-02
DAV:   8    -0.946396964100E+02   -0.13504E-03   -0.14906E-03  7880   0.149E-01    0.492E-02
DAV:   9    -0.946396868482E+02    0.95618E-05   -0.20311E-04  7152   0.748E-02    0.279E-02
DAV:  10    -0.946396883112E+02   -0.14630E-05   -0.58945E-05  6184   0.334E-02
  26 F= -.97647393E+02 E0= -.97649959E+02  d E =-.670806E-01
       N       E                     dE             d eps       ncg     rms          rms(c)
DAV:   1    -0.936003009558E+02    0.10394E+01   -0.22882E+02  5760   0.425E+01    0.822E+00
DAV:   2    -0.945708440478E+02   -0.97054E+00   -0.10386E+01  7080   0.963E+00    0.393E+00
DAV:   3    -0.946610531022E+02   -0.90209E-01   -0.97555E-01  8112   0.469E+00    0.371E+00
DAV:   4    -0.946208312604E+02    0.40222E-01   -0.11929E+00  7432   0.455E+00    0.254E+00
DAV:   5    -0.945841731448E+02    0.36658E-01   -0.39342E-01  7072   0.365E+00    0.148E+00
DAV:   6    -0.945804495506E+02    0.37236E-02   -0.24121E-01  7944   0.183E+00    0.154E+00
DAV:   7    -0.945577202047E+02    0.22729E-01   -0.16440E-01  7056   0.129E+00    0.600E-01
DAV:   8    -0.945505891110E+02    0.71311E-02   -0.21080E-02  7256   0.903E-01    0.209E-01
DAV:   9    -0.945506388725E+02   -0.49762E-04   -0.26611E-03  7976   0.229E-01    0.120E-01
DAV:  10    -0.945506464940E+02   -0.76215E-05   -0.70385E-04  7344   0.135E-01    0.474E-02
DAV:  11    -0.945506494364E+02   -0.29423E-05   -0.17620E-04  7032   0.899E-02    0.218E-02
DAV:  12    -0.945506603522E+02   -0.10916E-04   -0.28931E-05  5496   0.307E-02    0.115E-02
DAV:  13    -0.945506764703E+02   -0.16118E-04   -0.83669E-06  3720   0.166E-02    0.447E-03
DAV:  14    -0.945506823881E+02   -0.59178E-05   -0.26996E-06  3544   0.117E-02
  27 F= -.97561492E+02 E0= -.97563208E+02  d E =0.188204E-01
       N       E                     dE             d eps       ncg     rms          rms(c)
DAV:   1    -0.939527724980E+02    0.59790E+00   -0.17063E+02  5600   0.363E+01    0.636E+00
DAV:   2    -0.946583713171E+02   -0.70560E+00   -0.75194E+00  6968   0.860E+00    0.358E+00
DAV:   3    -0.949109623746E+02   -0.25259E+00   -0.17338E+00  7952   0.563E+00    0.383E+00
DAV:   4    -0.946913119825E+02    0.21965E+00   -0.13042E+00  7504   0.656E+00    0.221E+00
DAV:   5    -0.947078290376E+02   -0.16517E-01   -0.47186E-01  8152   0.234E+00    0.217E+00
DAV:   6    -0.946625481403E+02    0.45281E-01   -0.50022E-01  7064   0.210E+00    0.116E+00
DAV:   7    -0.946440798178E+02    0.18468E-01   -0.85112E-02  7448   0.170E+00    0.367E-01
DAV:   8    -0.946427826003E+02    0.12972E-02   -0.97291E-03  7728   0.510E-01    0.147E-01
DAV:   9    -0.946428069963E+02   -0.24396E-04   -0.28339E-03  7360   0.240E-01    0.894E-02
DAV:  10    -0.946427495946E+02    0.57402E-04   -0.44557E-04  7336   0.145E-01    0.438E-02
DAV:  11    -0.946427584134E+02   -0.88189E-05   -0.12649E-04  6808   0.648E-02    0.175E-02
DAV:  12    -0.946427671752E+02   -0.87618E-05   -0.28567E-05  5128   0.353E-02
  28 F= -.97651141E+02 E0= -.97653699E+02  d E =-.708289E-01
       N       E                     dE             d eps       ncg     rms          rms(c)
DAV:   1    -0.946641368783E+02   -0.21378E-01   -0.12422E+00  5440   0.291E+00    0.412E-01
DAV:   2    -0.946677201533E+02   -0.35833E-02   -0.43591E-02  7224   0.622E-01    0.243E-01
DAV:   3    -0.946685808973E+02   -0.86074E-03   -0.51637E-03  7816   0.317E-01    0.270E-01
DAV:   4    -0.946680776325E+02    0.50326E-03   -0.41355E-03  7000   0.202E-01    0.161E-01
DAV:   5    -0.946681650651E+02   -0.87433E-04   -0.20547E-03  6784   0.235E-01    0.962E-02
DAV:   6    -0.946678078452E+02    0.35722E-03   -0.12093E-03  6640   0.199E-01    0.252E-02
DAV:   7    -0.946678133354E+02   -0.54902E-05   -0.91786E-05  6360   0.358E-02
  29 F= -.97676039E+02 E0= -.97678646E+02  d E =-.248973E-01
       N       E                     dE             d eps       ncg     rms          rms(c)
DAV:   1    -0.946732605728E+02   -0.54527E-02   -0.56632E+00  5440   0.624E+00    0.923E-01
DAV:   2    -0.946903000636E+02   -0.17039E-01   -0.20538E-01  7240   0.136E+00    0.539E-01
DAV:   3    -0.946949118489E+02   -0.46118E-02   -0.26494E-02  7736   0.702E-01    0.632E-01
DAV:   4    -0.946915618879E+02    0.33500E-02   -0.19986E-02  7456   0.444E-01    0.330E-01
DAV:   5    -0.946925390579E+02   -0.97717E-03   -0.10288E-02  7296   0.550E-01    0.230E-01
DAV:   6    -0.946905186733E+02    0.20204E-02   -0.64266E-03  7040   0.466E-01    0.546E-02
DAV:   7    -0.946905415029E+02   -0.22830E-04   -0.44465E-04  7128   0.771E-02    0.214E-02
DAV:   8    -0.946905488674E+02   -0.73644E-05   -0.87846E-05  6968   0.412E-02
  30 F= -.97698485E+02 E0= -.97701175E+02  d E =-.473441E-01
       N       E                     dE             d eps       ncg     rms          rms(c)
DAV:   1    -0.947059262557E+02   -0.15385E-01   -0.14961E+00  5472   0.365E+00    0.356E-01
DAV:   2    -0.947135732899E+02   -0.76470E-02   -0.76880E-02  7152   0.936E-01    0.320E-01
DAV:   3    -0.947132432875E+02    0.33000E-03   -0.14917E-02  7248   0.623E-01    0.302E-01
DAV:   4    -0.947125465960E+02    0.69669E-03   -0.35469E-03  8048   0.220E-01    0.149E-01
DAV:   5    -0.947128220945E+02   -0.27550E-03   -0.24591E-03  7632   0.251E-01    0.153E-01
DAV:   6    -0.947124776061E+02    0.34449E-03   -0.16701E-03  6752   0.223E-01    0.541E-02
DAV:   7    -0.947124396823E+02    0.37924E-04   -0.26560E-04  6848   0.102E-01    0.204E-02
DAV:   8    -0.947124385681E+02    0.11142E-05   -0.66691E-05  6752   0.420E-02
  31 F= -.97720169E+02 E0= -.97723001E+02  d E =-.216833E-01
       N       E                     dE             d eps       ncg     rms          rms(c)
DAV:   1    -0.947056105839E+02    0.68291E-02   -0.62437E+00  5496   0.744E+00    0.737E-01
DAV:   2    -0.947391180318E+02   -0.33507E-01   -0.33401E-01  7216   0.200E+00    0.713E-01
DAV:   3    -0.947361383295E+02    0.29797E-02   -0.64522E-02  7184   0.125E+00    0.622E-01
DAV:   4    -0.947334773569E+02    0.26610E-02   -0.14926E-02  7824   0.441E-01    0.318E-01
DAV:   5    -0.947345114767E+02   -0.10341E-02   -0.10501E-02  8352   0.490E-01    0.315E-01
DAV:   6    -0.947330913628E+02    0.14201E-02   -0.70484E-03  7120   0.512E-01    0.116E-01
DAV:   7    -0.947328953478E+02    0.19602E-03   -0.11253E-03  7200   0.206E-01    0.439E-02
DAV:   8    -0.947328719113E+02    0.23436E-04   -0.29503E-04  7184   0.856E-02    0.202E-02
DAV:   9    -0.947328729679E+02   -0.10565E-05   -0.59176E-05  6312   0.363E-02
  32 F= -.97740235E+02 E0= -.97743314E+02  d E =-.417500E-01
       N       E                     dE             d eps       ncg     rms          rms(c)
DAV:   1    -0.947349475767E+02   -0.20757E-02   -0.13285E+00  5616   0.363E+00    0.352E-01
DAV:   2    -0.947426480704E+02   -0.77005E-02   -0.87396E-02  7192   0.891E-01    0.240E-01
DAV:   3    -0.947431718211E+02   -0.52375E-03   -0.10767E-02  8064   0.520E-01    0.192E-01
DAV:   4    -0.947424146258E+02    0.75720E-03   -0.51049E-03  7064   0.405E-01    0.120E-01
DAV:   5    -0.947426326223E+02   -0.21800E-03   -0.20561E-03  7208   0.223E-01    0.161E-01
DAV:   6    -0.947423196488E+02    0.31297E-03   -0.12916E-03  6848   0.130E-01    0.712E-02
DAV:   7    -0.947422677753E+02    0.51873E-04   -0.26786E-04  6776   0.650E-02    0.267E-02
DAV:   8    -0.947422627350E+02    0.50404E-05   -0.56476E-05  6312   0.396E-02
  33 F= -.97749346E+02 E0= -.97752182E+02  d E =-.911107E-02
       N       E                     dE             d eps       ncg     rms          rms(c)
DAV:   1    -0.947423352505E+02   -0.67475E-04   -0.88637E-02  5616   0.906E-01    0.832E-02
DAV:   2    -0.947428047981E+02   -0.46955E-03   -0.54136E-03  7032   0.230E-01    0.610E-02
DAV:   3    -0.947428343877E+02   -0.29590E-04   -0.57258E-04  7040   0.130E-01    0.502E-02
DAV:   4    -0.947428042930E+02    0.30095E-04   -0.29317E-04  6240   0.983E-02    0.379E-02
DAV:   5    -0.947428225446E+02   -0.18252E-04   -0.15471E-04  6176   0.535E-02    0.507E-02
DAV:   6    -0.947427927283E+02    0.29816E-04   -0.10114E-04  5568   0.351E-02    0.159E-02
DAV:   7    -0.947427914019E+02    0.13265E-05   -0.21479E-05  5048   0.245E-02
  34 F= -.97749806E+02 E0= -.97752549E+02  d E =-.957049E-02
       N       E                     dE             d eps       ncg     rms          rms(c)
DAV:   1    -0.947456774070E+02   -0.28847E-02   -0.10036E+00  5760   0.335E+00    0.262E-01
DAV:   2    -0.947518658685E+02   -0.61885E-02   -0.66269E-02  7016   0.799E-01    0.199E-01
DAV:   3    -0.947524522331E+02   -0.58636E-03   -0.70379E-03  7616   0.361E-01    0.240E-01
DAV:   4    -0.947518553943E+02    0.59684E-03   -0.19702E-03  6880   0.158E-01    0.943E-02
DAV:   5    -0.947520829428E+02   -0.22755E-03   -0.14810E-03  7144   0.210E-01    0.102E-01
DAV:   6    -0.947518115970E+02    0.27135E-03   -0.87897E-04  6320   0.160E-01    0.235E-02
DAV:   7    -0.947518213333E+02   -0.97363E-05   -0.10949E-04  6696   0.413E-02    0.139E-02
DAV:   8    -0.947518197529E+02    0.15804E-05   -0.16289E-05  4488   0.280E-02
  35 F= -.97758952E+02 E0= -.97761659E+02  d E =-.914623E-02
       N       E                     dE             d eps       ncg     rms          rms(c)
DAV:   1    -0.947174356543E+02    0.34386E-01   -0.85991E+00  5784   0.981E+00    0.754E-01
DAV:   2    -0.947713744439E+02   -0.53939E-01   -0.57464E-01  6960   0.236E+00    0.608E-01
DAV:   3    -0.947761392064E+02   -0.47648E-02   -0.61387E-02  7624   0.972E-01    0.714E-01
DAV:   4    -0.947709963553E+02    0.51429E-02   -0.16155E-02  6976   0.447E-01    0.282E-01
DAV:   5    -0.947729723221E+02   -0.19760E-02   -0.12580E-02  8152   0.617E-01    0.289E-01
DAV:   6    -0.947706450398E+02    0.23273E-02   -0.76540E-03  7584   0.482E-01    0.641E-02
DAV:   7    -0.947707278180E+02   -0.82778E-04   -0.89714E-04  7760   0.109E-01    0.382E-02
DAV:   8    -0.947707144000E+02    0.13418E-04   -0.13965E-04  6720   0.622E-02    0.221E-02
DAV:   9    -0.947707149281E+02   -0.52813E-06   -0.35765E-05  5720   0.291E-02
  36 F= -.97778291E+02 E0= -.97780835E+02  d E =-.284854E-01
       N       E                     dE             d eps       ncg     rms          rms(c)
DAV:   1    -0.945532380826E+02    0.21748E+00   -0.34527E+01  5784   0.197E+01    0.151E+00
DAV:   2    -0.947781508378E+02   -0.22491E+00   -0.23671E+00  6832   0.485E+00    0.133E+00
DAV:   3    -0.947957981153E+02   -0.17647E-01   -0.26582E-01  7584   0.203E+00    0.148E+00
DAV:   4    -0.947739158038E+02    0.21882E-01   -0.63106E-02  6928   0.929E-01    0.603E-01
DAV:   5    -0.947811929733E+02   -0.72772E-02   -0.49442E-02  8520   0.121E+00    0.554E-01
DAV:   6    -0.947726224799E+02    0.85705E-02   -0.30633E-02  8136   0.108E+00    0.138E-01
DAV:   7    -0.947729109719E+02   -0.28849E-03   -0.35575E-03  7560   0.218E-01    0.715E-02
DAV:   8    -0.947728845255E+02    0.26446E-04   -0.51628E-04  7128   0.104E-01    0.504E-02
DAV:   9    -0.947728884338E+02   -0.39083E-05   -0.14405E-04  7192   0.573E-02    0.333E-02
DAV:  10    -0.947729040569E+02   -0.15623E-04   -0.47478E-05  5928   0.406E-02    0.138E-02
DAV:  11    -0.947729121554E+02   -0.80986E-05   -0.13529E-05  4168   0.273E-02
  37 F= -.97781839E+02 E0= -.97783950E+02  d E =-.320331E-01
       N       E                     dE             d eps       ncg     rms          rms(c)
DAV:   1    -0.947372115146E+02    0.35693E-01   -0.65830E+00  5768   0.854E+00    0.744E-01
DAV:   2    -0.947777535403E+02   -0.40542E-01   -0.43915E-01  6672   0.207E+00    0.463E-01
DAV:   3    -0.947819969901E+02   -0.42434E-02   -0.51712E-02  7992   0.106E+00    0.545E-01
DAV:   4    -0.947781572385E+02    0.38398E-02   -0.14571E-02  7000   0.543E-01    0.247E-01
DAV:   5    -0.947800843191E+02   -0.19271E-02   -0.98660E-03  8416   0.461E-01    0.323E-01
DAV:   6    -0.947779686073E+02    0.21157E-02   -0.64610E-03  7064   0.429E-01    0.799E-02
DAV:   7    -0.947779799765E+02   -0.11369E-04   -0.83508E-04  8120   0.140E-01    0.418E-02
DAV:   8    -0.947779777524E+02    0.22240E-05   -0.19355E-04  6832   0.705E-02    0.203E-02
DAV:   9    -0.947779787522E+02   -0.99972E-06   -0.31835E-05  5688   0.321E-02
  38 F= -.97786238E+02 E0= -.97788550E+02  d E =-.364320E-01
       N       E                     dE             d eps       ncg     rms          rms(c)
DAV:   1    -0.947666148906E+02    0.11363E-01   -0.51417E+00  5672   0.751E+00    0.517E-01
DAV:   2    -0.947931290548E+02   -0.26514E-01   -0.28045E-01  6912   0.176E+00    0.352E-01
DAV:   3    -0.947956448599E+02   -0.25158E-02   -0.25098E-02  8200   0.588E-01    0.464E-01
DAV:   4    -0.947933242471E+02    0.23206E-02   -0.78724E-03  7440   0.294E-01    0.190E-01
DAV:   5    -0.947937241811E+02   -0.39993E-03   -0.32852E-03  8528   0.285E-01    0.157E-01
DAV:   6    -0.947932612312E+02    0.46295E-03   -0.29399E-03  6624   0.308E-01    0.703E-02
DAV:   7    -0.947932114120E+02    0.49819E-04   -0.45853E-04  6824   0.122E-01    0.208E-02
DAV:   8    -0.947932133620E+02   -0.19501E-05   -0.98826E-05  6664   0.560E-02
  39 F= -.97802072E+02 E0= -.97804258E+02  d E =-.158339E-01
       N       E                     dE             d eps       ncg     rms          rms(c)
DAV:   1    -0.947695585934E+02    0.23653E-01   -0.57051E+00  5696   0.794E+00    0.547E-01
DAV:   2    -0.947987791402E+02   -0.29221E-01   -0.30989E-01  6960   0.184E+00    0.364E-01
DAV:   3    -0.948014745583E+02   -0.26954E-02   -0.26891E-02  8320   0.639E-01    0.473E-01
DAV:   4    -0.947991171246E+02    0.23574E-02   -0.87973E-03  7256   0.312E-01    0.206E-01
DAV:   5    -0.947995590974E+02   -0.44197E-03   -0.36861E-03  8216   0.311E-01    0.169E-01
DAV:   6    -0.947990371101E+02    0.52199E-03   -0.33076E-03  6592   0.338E-01    0.765E-02
DAV:   7    -0.947989907054E+02    0.46405E-04   -0.51941E-04  6696   0.136E-01    0.224E-02
DAV:   8    -0.947989941339E+02   -0.34285E-05   -0.11762E-04  6848   0.621E-02    0.136E-02
DAV:   9    -0.947989978119E+02   -0.36780E-05   -0.20426E-05  4528   0.214E-02
  40 F= -.97808581E+02 E0= -.97810631E+02  d E =-.223434E-01
       N       E                     dE             d eps       ncg     rms          rms(c)
DAV:   1    -0.947992440225E+02   -0.24989E-03   -0.18915E+00  5624   0.441E+00    0.332E-01
DAV:   2    -0.948076376418E+02   -0.83936E-02   -0.94016E-02  7096   0.103E+00    0.184E-01
DAV:   3    -0.948081984153E+02   -0.56077E-03   -0.88779E-03  8112   0.480E-01    0.155E-01
DAV:   4    -0.948077865936E+02    0.41182E-03   -0.32740E-03  7328   0.328E-01    0.109E-01
DAV:   5    -0.948079243792E+02   -0.13779E-03   -0.12886E-03  7680   0.156E-01    0.126E-01
DAV:   6    -0.948077877090E+02    0.13667E-03   -0.84480E-04  7328   0.103E-01    0.665E-02
DAV:   7    -0.948077596979E+02    0.28011E-04   -0.24774E-04  6464   0.581E-02    0.308E-02
DAV:   8    -0.948077452950E+02    0.14403E-04   -0.45199E-05  6008   0.346E-02    0.951E-03
DAV:   9    -0.948077468752E+02   -0.15802E-05   -0.80275E-06  3808   0.148E-02
  41 F= -.97817581E+02 E0= -.97819362E+02  d E =-.900018E-02
       N       E                     dE             d eps       ncg     rms          rms(c)
DAV:   1    -0.948027252259E+02    0.50201E-02   -0.20156E+00  5616   0.449E+00    0.318E-01
DAV:   2    -0.948111366942E+02   -0.84115E-02   -0.94659E-02  6984   0.104E+00    0.180E-01
DAV:   3    -0.948116783404E+02   -0.54165E-03   -0.80065E-03  8192   0.460E-01    0.147E-01
DAV:   4    -0.948114345888E+02    0.24375E-03   -0.30950E-03  7416   0.312E-01    0.120E-01
DAV:   5    -0.948115508173E+02   -0.11623E-03   -0.14293E-03  7592   0.154E-01    0.141E-01
DAV:   6    -0.948113622515E+02    0.18857E-03   -0.83688E-04  7120   0.983E-02    0.559E-02
DAV:   7    -0.948113497391E+02    0.12512E-04   -0.24029E-04  6544   0.644E-02    0.295E-02
DAV:   8    -0.948113347903E+02    0.14949E-04   -0.46686E-05  5976   0.382E-02    0.920E-03
DAV:   9    -0.948113358205E+02   -0.10302E-05   -0.67306E-06  3488   0.135E-02
  42 F= -.97821459E+02 E0= -.97822935E+02  d E =-.128781E-01
       N       E                     dE             d eps       ncg     rms          rms(c)
DAV:   1    -0.948111092523E+02    0.22554E-03   -0.64987E-02  5688   0.805E-01    0.571E-02
DAV:   2    -0.948113831447E+02   -0.27389E-03   -0.30810E-03  7000   0.191E-01    0.331E-02
DAV:   3    -0.948113983538E+02   -0.15209E-04   -0.23269E-04  7048   0.757E-02    0.256E-02
DAV:   4    -0.948113937561E+02    0.45978E-05   -0.84610E-05  5464   0.536E-02
  43 F= -.97821572E+02 E0= -.97823013E+02  d E =-.129911E-01
       N       E                     dE             d eps       ncg     rms          rms(c)
DAV:   1    -0.948129392199E+02   -0.15409E-02   -0.52473E-01  5552   0.218E+00    0.180E-01
DAV:   2    -0.948149847576E+02   -0.20455E-02   -0.21312E-02  6872   0.497E-01    0.149E-01
DAV:   3    -0.948152607153E+02   -0.27596E-03   -0.30411E-03  8024   0.207E-01    0.188E-01
DAV:   4    -0.948148975809E+02    0.36313E-03   -0.10475E-03  7000   0.111E-01    0.746E-02
DAV:   5    -0.948149665652E+02   -0.68984E-04   -0.56112E-04  6880   0.127E-01    0.612E-02
DAV:   6    -0.948148875244E+02    0.79041E-04   -0.38747E-04  5872   0.112E-01    0.201E-02
DAV:   7    -0.948148850478E+02    0.24766E-05   -0.64529E-05  5752   0.411E-02
  44 F= -.97825286E+02 E0= -.97826800E+02  d E =-.371406E-02
       N       E                     dE             d eps       ncg     rms          rms(c)
DAV:   1    -0.948131554001E+02    0.17321E-02   -0.13718E+00  5560   0.352E+00    0.288E-01
DAV:   2    -0.948182397084E+02   -0.50843E-02   -0.55079E-02  6752   0.794E-01    0.187E-01
DAV:   3    -0.948188046393E+02   -0.56493E-03   -0.60141E-03  7992   0.357E-01    0.237E-01
DAV:   4    -0.948182634158E+02    0.54122E-03   -0.20402E-03  6736   0.175E-01    0.118E-01
DAV:   5    -0.948185325515E+02   -0.26914E-03   -0.14150E-03  8024   0.169E-01    0.122E-01
DAV:   6    -0.948182515156E+02    0.28104E-03   -0.11910E-03  6640   0.197E-01    0.322E-02
DAV:   7    -0.948182421418E+02    0.93739E-05   -0.15535E-04  6536   0.717E-02    0.105E-02
DAV:   8    -0.948182437405E+02   -0.15988E-05   -0.29702E-05  5368   0.313E-02
  45 F= -.97829019E+02 E0= -.97830659E+02  d E =-.744646E-02
       N       E                     dE             d eps       ncg     rms          rms(c)
DAV:   1    -0.947958910031E+02    0.22351E-01   -0.54803E+00  5576   0.708E+00    0.586E-01
DAV:   2    -0.948164561157E+02   -0.20565E-01   -0.22265E-01  6752   0.161E+00    0.389E-01
DAV:   3    -0.948189681790E+02   -0.25121E-02   -0.25727E-02  8296   0.755E-01    0.503E-01
DAV:   4    -0.948164266408E+02    0.25415E-02   -0.91385E-03  6960   0.348E-01    0.244E-01
DAV:   5    -0.948174048483E+02   -0.97821E-03   -0.54346E-03  8504   0.352E-01    0.237E-01
DAV:   6    -0.948164028986E+02    0.10019E-02   -0.46192E-03  7144   0.385E-01    0.702E-02
DAV:   7    -0.948163697629E+02    0.33136E-04   -0.67733E-04  7464   0.157E-01    0.231E-02
DAV:   8    -0.948163699572E+02   -0.19436E-06   -0.12514E-04  6320   0.648E-02    0.171E-02
DAV:   9    -0.948163761156E+02   -0.61584E-05   -0.24432E-05  5232   0.220E-02
  46 F= -.97827950E+02 E0= -.97829856E+02  d E =-.637745E-02
       N       E                     dE             d eps       ncg     rms          rms(c)
DAV:   1    -0.948112721346E+02    0.50978E-02   -0.20095E+00  5720   0.432E+00    0.346E-01
DAV:   2    -0.948189527745E+02   -0.76806E-02   -0.82144E-02  6808   0.992E-01    0.231E-01
DAV:   3    -0.948198006591E+02   -0.84788E-03   -0.95972E-03  7688   0.461E-01    0.286E-01
DAV:   4    -0.948189701563E+02    0.83050E-03   -0.32543E-03  6888   0.233E-01    0.136E-01
DAV:   5    -0.948193578095E+02   -0.38765E-03   -0.23670E-03  8416   0.227E-01    0.148E-01
DAV:   6    -0.948189300365E+02    0.42777E-03   -0.17047E-03  7000   0.229E-01    0.354E-02
DAV:   7    -0.948189130563E+02    0.16980E-04   -0.20220E-04  6992   0.853E-02    0.120E-02
DAV:   8    -0.948189153897E+02   -0.23335E-05   -0.44180E-05  5872   0.344E-02
  47 F= -.97829997E+02 E0= -.97831739E+02  d E =-.842476E-02
       N       E                     dE             d eps       ncg     rms          rms(c)
DAV:   1    -0.948211132730E+02   -0.22002E-02   -0.32482E-01  5608   0.175E+00    0.125E-01
DAV:   2    -0.948223490117E+02   -0.12357E-02   -0.13065E-02  6976   0.400E-01    0.809E-02
DAV:   3    -0.948224720272E+02   -0.12302E-03   -0.12895E-03  7768   0.147E-01    0.107E-01
DAV:   4    -0.948223614873E+02    0.11054E-03   -0.42806E-04  7496   0.738E-02    0.484E-02
DAV:   5    -0.948223889692E+02   -0.27482E-04   -0.21989E-04  6248   0.735E-02    0.419E-02
DAV:   6    -0.948223588405E+02    0.30129E-04   -0.18471E-04  5648   0.783E-02    0.150E-02
DAV:   7    -0.948223568456E+02    0.19948E-05   -0.23000E-05  4488   0.327E-02
  48 F= -.97833584E+02 E0= -.97835347E+02  d E =-.358644E-02
       N       E                     dE             d eps       ncg     rms          rms(c)
DAV:   1    -0.948185849711E+02    0.37739E-02   -0.29351E+00  5632   0.524E+00    0.380E-01
DAV:   2    -0.948298434763E+02   -0.11259E-01   -0.11966E-01  7048   0.120E+00    0.234E-01
DAV:   3    -0.948308229202E+02   -0.97944E-03   -0.10596E-02  7984   0.430E-01    0.295E-01
DAV:   4    -0.948300140532E+02    0.80887E-03   -0.35431E-03  7592   0.225E-01    0.149E-01
DAV:   5    -0.948303073981E+02   -0.29334E-03   -0.19537E-03  7336   0.203E-01    0.132E-01
DAV:   6    -0.948300208441E+02    0.28655E-03   -0.17682E-03  7040   0.228E-01    0.476E-02
DAV:   7    -0.948299986794E+02    0.22165E-04   -0.23093E-04  6688   0.961E-02    0.138E-02
DAV:   8    -0.948300008571E+02   -0.21777E-05   -0.50912E-05  5968   0.365E-02
  49 F= -.97841690E+02 E0= -.97843512E+02  d E =-.116924E-01
       N       E                     dE             d eps       ncg     rms          rms(c)
DAV:   1    -0.947870318898E+02    0.42967E-01   -0.11791E+01  5632   0.106E+01    0.773E-01
DAV:   2    -0.948331621476E+02   -0.46130E-01   -0.48802E-01  7080   0.241E+00    0.478E-01
DAV:   3    -0.948376123187E+02   -0.44502E-02   -0.43553E-02  7872   0.860E-01    0.632E-01
DAV:   4    -0.948338097389E+02    0.38026E-02   -0.14770E-02  7824   0.422E-01    0.301E-01
DAV:   5    -0.948348673709E+02   -0.10576E-02   -0.75088E-03  7848   0.436E-01    0.254E-01
DAV:   6    -0.948338768842E+02    0.99049E-03   -0.70418E-03  7440   0.526E-01    0.101E-01
DAV:   7    -0.948337812175E+02    0.95667E-04   -0.10076E-03  6992   0.223E-01    0.321E-02
DAV:   8    -0.948337897741E+02   -0.85566E-05   -0.23985E-04  7480   0.713E-02    0.291E-02
DAV:   9    -0.948337916504E+02   -0.18763E-05   -0.23001E-05  4888   0.276E-02
  50 F= -.97846527E+02 E0= -.97848505E+02  d E =-.165299E-01
       N       E                     dE             d eps       ncg     rms          rms(c)
DAV:   1    -0.948325984920E+02    0.11913E-02   -0.43088E-01  5616   0.201E+00    0.141E-01
DAV:   2    -0.948342280000E+02   -0.16295E-02   -0.17288E-02  7120   0.466E-01    0.890E-02
DAV:   3    -0.948343633926E+02   -0.13539E-03   -0.16001E-03  7592   0.191E-01    0.106E-01
DAV:   4    -0.948342542430E+02    0.10915E-03   -0.50607E-04  7552   0.939E-02    0.550E-02
DAV:   5    -0.948343026791E+02   -0.48436E-04   -0.29735E-04  6560   0.797E-02    0.539E-02
DAV:   6    -0.948342580687E+02    0.44610E-04   -0.24570E-04  5968   0.902E-02    0.167E-02
DAV:   7    -0.948342568024E+02    0.12663E-05   -0.31431E-05  4880   0.385E-02
  51 F= -.97846779E+02 E0= -.97848728E+02  d E =-.167819E-01
       N       E                     dE             d eps       ncg     rms          rms(c)
DAV:   1    -0.948362943720E+02   -0.20363E-02   -0.40136E-01  5448   0.169E+00    0.183E-01
DAV:   2    -0.948375707105E+02   -0.12763E-02   -0.14311E-02  7424   0.388E-01    0.988E-02
DAV:   3    -0.948377291493E+02   -0.15844E-03   -0.18452E-03  7048   0.247E-01    0.111E-01
DAV:   4    -0.948375619653E+02    0.16718E-03   -0.71995E-04  6984   0.157E-01    0.515E-02
DAV:   5    -0.948376126225E+02   -0.50657E-04   -0.21870E-04  7248   0.553E-02    0.525E-02
DAV:   6    -0.948375929794E+02    0.19643E-04   -0.20182E-04  6080   0.654E-02    0.315E-02
DAV:   7    -0.948375796112E+02    0.13368E-04   -0.68255E-05  5168   0.425E-02    0.106E-02
DAV:   8    -0.948375782634E+02    0.13478E-05   -0.75166E-06  3960   0.212E-02
  52 F= -.97850397E+02 E0= -.97852367E+02  d E =-.361828E-02
       N       E                     dE             d eps       ncg     rms          rms(c)
DAV:   1    -0.948328437779E+02    0.47358E-02   -0.36135E+00  5464   0.509E+00    0.556E-01
DAV:   2    -0.948445339200E+02   -0.11690E-01   -0.13119E-01  7272   0.117E+00    0.297E-01
DAV:   3    -0.948459772235E+02   -0.14433E-02   -0.16747E-02  7304   0.729E-01    0.332E-01
DAV:   4    -0.948444957162E+02    0.14815E-02   -0.66065E-03  7448   0.438E-01    0.162E-01
DAV:   5    -0.948447272160E+02   -0.23150E-03   -0.14611E-03  7584   0.147E-01    0.105E-01
DAV:   6    -0.948448667286E+02   -0.13951E-03   -0.13181E-03  7432   0.155E-01    0.127E-01
DAV:   7    -0.948446537403E+02    0.21299E-03   -0.88704E-04  6616   0.139E-01    0.370E-02
DAV:   8    -0.948446273630E+02    0.26377E-04   -0.10821E-04  6112   0.581E-02    0.126E-02
DAV:   9    -0.948446322667E+02   -0.49037E-05   -0.21287E-05  5096   0.258E-02
  53 F= -.97858371E+02 E0= -.97860400E+02  d E =-.115919E-01
       N       E                     dE             d eps       ncg     rms          rms(c)
DAV:   1    -0.947967705166E+02    0.47857E-01   -0.14434E+01  5464   0.102E+01    0.114E+00
DAV:   2    -0.948447805340E+02   -0.48010E-01   -0.54189E-01  7296   0.238E+00    0.610E-01
DAV:   3    -0.948500970314E+02   -0.53165E-02   -0.63895E-02  7216   0.150E+00    0.670E-01
DAV:   4    -0.948447170169E+02    0.53800E-02   -0.27993E-02  7400   0.835E-01    0.351E-01
DAV:   5    -0.948461994371E+02   -0.14824E-02   -0.72338E-03  7808   0.317E-01    0.304E-01
DAV:   6    -0.948462088091E+02   -0.93721E-05   -0.86128E-03  7288   0.426E-01    0.257E-01
DAV:   7    -0.948453030117E+02    0.90580E-03   -0.38668E-03  7648   0.300E-01    0.735E-02
DAV:   8    -0.948451933012E+02    0.10971E-03   -0.44770E-04  7496   0.125E-01    0.253E-02
DAV:   9    -0.948452147001E+02   -0.21399E-04   -0.97320E-05  6832   0.536E-02    0.161E-02
DAV:  10    -0.948452332067E+02   -0.18507E-04   -0.14520E-05  4432   0.266E-02    0.693E-03
DAV:  11    -0.948452508374E+02   -0.17631E-04   -0.79480E-06  3912   0.175E-02    0.316E-03
DAV:  12    -0.948452646296E+02   -0.13792E-04   -0.31133E-06  3608   0.942E-03    0.185E-03
DAV:  13    -0.948452788107E+02   -0.14181E-04   -0.24174E-06  3768   0.704E-03    0.148E-03
DAV:  14    -0.948452987737E+02   -0.19963E-04   -0.56339E-06  4280   0.688E-03    0.980E-04
DAV:  15    -0.948453098001E+02   -0.11026E-04   -0.18828E-06  3840   0.488E-03    0.730E-04
DAV:  16    -0.948453145174E+02   -0.47173E-05   -0.99774E-07  3560   0.411E-03
  54 F= -.97861028E+02 E0= -.97863213E+02  d E =-.142488E-01
       N       E                     dE             d eps       ncg     rms          rms(c)
DAV:   1    -0.948409083986E+02    0.44014E-02   -0.19564E+00  5464   0.376E+00    0.424E-01
DAV:   2    -0.948472426643E+02   -0.63343E-02   -0.70717E-02  7296   0.860E-01    0.219E-01
DAV:   3    -0.948482409070E+02   -0.99824E-03   -0.11507E-02  7408   0.675E-01    0.252E-01
DAV:   4    -0.948471490884E+02    0.10918E-02   -0.41811E-03  7544   0.398E-01    0.105E-01
DAV:   5    -0.948472635254E+02   -0.11444E-03   -0.93066E-04  7648   0.130E-01    0.645E-02
DAV:   6    -0.948472391244E+02    0.24401E-04   -0.30123E-04  7504   0.986E-02    0.468E-02
DAV:   7    -0.948472565357E+02   -0.17411E-04   -0.27224E-04  6144   0.726E-02    0.478E-02
DAV:   8    -0.948472169525E+02    0.39583E-04   -0.12051E-04  5536   0.546E-02    0.118E-02
DAV:   9    -0.948472155176E+02    0.14349E-05   -0.79691E-06  4032   0.189E-02
  55 F= -.97862182E+02 E0= -.97864310E+02  d E =-.154030E-01
       N       E                     dE             d eps       ncg     rms          rms(c)
DAV:   1    -0.948485110557E+02   -0.12941E-02   -0.48022E-01  5608   0.191E+00    0.208E-01
DAV:   2    -0.948503893653E+02   -0.18783E-02   -0.20458E-02  7632   0.457E-01    0.130E-01
DAV:   3    -0.948504854836E+02   -0.96118E-04   -0.21185E-03  7504   0.268E-01    0.110E-01
DAV:   4    -0.948503735365E+02    0.11195E-03   -0.11943E-03  7216   0.203E-01    0.679E-02
DAV:   5    -0.948504453014E+02   -0.71765E-04   -0.60360E-04  6744   0.109E-01    0.841E-02
DAV:   6    -0.948503688038E+02    0.76498E-04   -0.41104E-04  6576   0.756E-02    0.446E-02
DAV:   7    -0.948503525138E+02    0.16290E-04   -0.84985E-05  5824   0.368E-02    0.139E-02
DAV:   8    -0.948503488263E+02    0.36875E-05   -0.11029E-05  4256   0.228E-02
  56 F= -.97865799E+02 E0= -.97867891E+02  d E =-.361676E-02
       N       E                     dE             d eps       ncg     rms          rms(c)
DAV:   1    -0.948484405163E+02    0.19120E-02   -0.80981E-01  5600   0.247E+00    0.272E-01
DAV:   2    -0.948515966078E+02   -0.31561E-02   -0.34362E-02  7640   0.595E-01    0.170E-01
DAV:   3    -0.948517525408E+02   -0.15593E-03   -0.35165E-03  7688   0.348E-01    0.143E-01
DAV:   4    -0.948515815175E+02    0.17102E-03   -0.20317E-03  7272   0.257E-01    0.888E-02
DAV:   5    -0.948517099563E+02   -0.12844E-03   -0.10765E-03  6928   0.149E-01    0.114E-01
DAV:   6    -0.948515621926E+02    0.14776E-03   -0.71049E-04  6632   0.974E-02    0.558E-02
DAV:   7    -0.948515378685E+02    0.24324E-04   -0.14199E-04  6696   0.474E-02    0.181E-02
DAV:   8    -0.948515327417E+02    0.51268E-05   -0.19058E-05  4560   0.278E-02
  57 F= -.97867620E+02 E0= -.97869663E+02  d E =-.543779E-02
       N       E                     dE             d eps       ncg     rms          rms(c)
DAV:   1    -0.948521775686E+02   -0.63970E-03   -0.15651E-01  5448   0.114E+00    0.106E-01
DAV:   2    -0.948528582630E+02   -0.68069E-03   -0.77647E-03  7040   0.270E-01    0.672E-02
DAV:   3    -0.948529164752E+02   -0.58212E-04   -0.60832E-04  6640   0.916E-02    0.716E-02
DAV:   4    -0.948528864294E+02    0.30046E-04   -0.28752E-04  6688   0.572E-02    0.512E-02
DAV:   5    -0.948528873071E+02   -0.87766E-06   -0.13878E-04  5728   0.652E-02    0.315E-02
DAV:   6    -0.948528716444E+02    0.15663E-04   -0.10454E-04  4536   0.632E-02    0.132E-02
DAV:   7    -0.948528712721E+02    0.37226E-06   -0.15048E-05  3704   0.213E-02
  58 F= -.97869273E+02 E0= -.97871249E+02  d E =-.165320E-02
       N       E                     dE             d eps       ncg     rms          rms(c)
DAV:   1    -0.948487168305E+02    0.41548E-02   -0.14053E+00  5456   0.340E+00    0.317E-01
DAV:   2    -0.948548037967E+02   -0.60870E-02   -0.69357E-02  7152   0.798E-01    0.195E-01
DAV:   3    -0.948552437277E+02   -0.43993E-03   -0.50251E-03  8304   0.255E-01    0.201E-01
DAV:   4    -0.948550826461E+02    0.16108E-03   -0.23578E-03  7392   0.158E-01    0.157E-01
DAV:   5    -0.948550257868E+02    0.56859E-04   -0.11013E-03  6856   0.174E-01    0.869E-02
DAV:   6    -0.948549310638E+02    0.94723E-04   -0.88768E-04  6736   0.169E-01    0.394E-02
DAV:   7    -0.948549081971E+02    0.22867E-04   -0.15894E-04  5576   0.613E-02    0.123E-02
DAV:   8    -0.948549101268E+02   -0.19297E-05   -0.29287E-05  5160   0.247E-02
  59 F= -.97872270E+02 E0= -.97874022E+02  d E =-.465006E-02
       N       E                     dE             d eps       ncg     rms          rms(c)
DAV:   1    -0.948249615923E+02    0.29947E-01   -0.56089E+00  5456   0.680E+00    0.638E-01
DAV:   2    -0.948498802755E+02   -0.24919E-01   -0.28304E-01  7152   0.160E+00    0.386E-01
DAV:   3    -0.948511407682E+02   -0.12605E-02   -0.17422E-02  8160   0.453E-01    0.356E-01
DAV:   4    -0.948513665673E+02   -0.22580E-03   -0.89108E-03  7560   0.301E-01    0.348E-01
DAV:   5    -0.948505638573E+02    0.80271E-03   -0.39709E-03  7168   0.298E-01    0.149E-01
DAV:   6    -0.948505762372E+02   -0.12380E-04   -0.32252E-03  6872   0.325E-01    0.879E-02
DAV:   7    -0.948503434403E+02    0.23280E-03   -0.10471E-03  6544   0.173E-01    0.274E-02
DAV:   8    -0.948503435716E+02   -0.13135E-06   -0.12531E-04  6296   0.510E-02    0.179E-02
DAV:   9    -0.948503453292E+02   -0.17575E-05   -0.29210E-05  5464   0.280E-02
  60 F= -.97869684E+02 E0= -.97871037E+02  d E =-.206446E-02
       N       E                     dE             d eps       ncg     rms          rms(c)
DAV:   1    -0.948417535258E+02    0.85900E-02   -0.29782E+00  5456   0.493E+00    0.459E-01
DAV:   2    -0.948545793210E+02   -0.12826E-01   -0.14505E-01  7216   0.115E+00    0.281E-01
DAV:   3    -0.948555920532E+02   -0.10127E-02   -0.10626E-02  8424   0.372E-01    0.299E-01
DAV:   4    -0.948551648446E+02    0.42721E-03   -0.50764E-03  7512   0.257E-01    0.220E-01
DAV:   5    -0.948548616147E+02    0.30323E-03   -0.16299E-03  6664   0.190E-01    0.974E-02
DAV:   6    -0.948549770835E+02   -0.11547E-03   -0.15458E-03  6680   0.230E-01    0.705E-02
DAV:   7    -0.948548045137E+02    0.17257E-03   -0.74532E-04  6584   0.147E-01    0.236E-02
DAV:   8    -0.948547992506E+02    0.52631E-05   -0.80184E-05  6192   0.433E-02
  61 F= -.97872687E+02 E0= -.97874330E+02  d E =-.506754E-02
       N       E                     dE             d eps       ncg     rms          rms(c)
DAV:   1    -0.948550972985E+02   -0.29278E-03   -0.92283E-02  5464   0.898E-01    0.799E-02
DAV:   2    -0.948555663985E+02   -0.46910E-03   -0.50438E-03  7176   0.217E-01    0.535E-02
DAV:   3    -0.948555719679E+02   -0.55695E-05   -0.29379E-04  6920   0.821E-02    0.431E-02
DAV:   4    -0.948555716313E+02    0.33661E-06   -0.13434E-04  5712   0.680E-02    0.322E-02
DAV:   5    -0.948555718943E+02   -0.26297E-06   -0.80124E-05  4992   0.531E-02
  62 F= -.97873751E+02 E0= -.97875423E+02  d E =-.106391E-02
       N       E                     dE             d eps       ncg     rms          rms(c)
DAV:   1    -0.948523260655E+02    0.32456E-02   -0.75037E-01  5480   0.256E+00    0.240E-01
DAV:   2    -0.948562407696E+02   -0.39147E-02   -0.41444E-02  7360   0.616E-01    0.191E-01
DAV:   3    -0.948564989313E+02   -0.25816E-03   -0.45612E-03  7176   0.283E-01    0.220E-01
DAV:   4    -0.948560818442E+02    0.41709E-03   -0.15829E-03  6656   0.129E-01    0.111E-01
DAV:   5    -0.948561833248E+02   -0.10148E-03   -0.83516E-04  7072   0.156E-01    0.930E-02
DAV:   6    -0.948560712866E+02    0.11204E-03   -0.78025E-04  6272   0.165E-01    0.475E-02
DAV:   7    -0.948560490841E+02    0.22203E-04   -0.18737E-04  6240   0.820E-02    0.148E-02
DAV:   8    -0.948560478460E+02    0.12381E-05   -0.38189E-05  5616   0.330E-02
  63 F= -.97875063E+02 E0= -.97876823E+02  d E =-.237601E-02
       N       E                     dE             d eps       ncg     rms          rms(c)
DAV:   1    -0.948564892631E+02   -0.44018E-03   -0.49567E-02  5504   0.708E-01    0.653E-02
DAV:   2    -0.948567528194E+02   -0.26356E-03   -0.28483E-03  6872   0.165E-01    0.332E-02
DAV:   3    -0.948567724256E+02   -0.19606E-04   -0.22177E-04  6280   0.725E-02    0.346E-02
DAV:   4    -0.948567632409E+02    0.91848E-05   -0.10825E-04  5728   0.536E-02    0.243E-02
DAV:   5    -0.948567630309E+02    0.20995E-06   -0.27970E-05  4720   0.218E-02
  64 F= -.97875931E+02 E0= -.97877664E+02  d E =-.867852E-03
       N       E                     dE             d eps       ncg     rms          rms(c)
DAV:   1    -0.948561082945E+02    0.65495E-03   -0.44493E-01  5520   0.212E+00    0.186E-01
DAV:   2    -0.948584158759E+02   -0.23076E-02   -0.24834E-02  6824   0.485E-01    0.991E-02
DAV:   3    -0.948585293661E+02   -0.11349E-03   -0.19707E-03  7312   0.228E-01    0.872E-02
DAV:   4    -0.948584629056E+02    0.66461E-04   -0.76481E-04  7160   0.154E-01    0.552E-02
DAV:   5    -0.948584538492E+02    0.90564E-05   -0.18121E-04  5872   0.692E-02    0.270E-02
DAV:   6    -0.948584612327E+02   -0.73835E-05   -0.55915E-05  6328   0.415E-02
  65 F= -.97878091E+02 E0= -.97879878E+02  d E =-.302741E-02
       N       E                     dE             d eps       ncg     rms          rms(c)
DAV:   1    -0.948505604698E+02    0.78934E-02   -0.17853E+00  5520   0.424E+00    0.376E-01
DAV:   2    -0.948597532776E+02   -0.91928E-02   -0.99331E-02  6936   0.951E-01    0.199E-01
DAV:   3    -0.948603979379E+02   -0.64466E-03   -0.71644E-03  7944   0.319E-01    0.235E-01
DAV:   4    -0.948600369256E+02    0.36101E-03   -0.28082E-03  7376   0.180E-01    0.145E-01
DAV:   5    -0.948600472368E+02   -0.10311E-04   -0.11956E-03  7016   0.155E-01    0.869E-02
DAV:   6    -0.948599812618E+02    0.65975E-04   -0.11426E-03  6752   0.201E-01    0.532E-02
DAV:   7    -0.948599337182E+02    0.47544E-04   -0.27365E-04  6368   0.103E-01    0.168E-02
DAV:   8    -0.948599340653E+02   -0.34711E-06   -0.45723E-05  6016   0.328E-02
  66 F= -.97880501E+02 E0= -.97882263E+02  d E =-.543784E-02
       N       E                     dE             d eps       ncg     rms          rms(c)
DAV:   1    -0.948602854089E+02   -0.35169E-03   -0.27102E-01  5536   0.159E+00    0.142E-01
DAV:   2    -0.948614192156E+02   -0.11338E-02   -0.12838E-02  6840   0.354E-01    0.729E-02
DAV:   3    -0.948614710298E+02   -0.51814E-04   -0.89755E-04  7040   0.135E-01    0.614E-02
DAV:   4    -0.948614710391E+02   -0.92332E-08   -0.35271E-04  6472   0.106E-01    0.445E-02
DAV:   5    -0.948614845866E+02   -0.13548E-04   -0.21898E-04  6592   0.749E-02    0.484E-02
DAV:   6    -0.948614692567E+02    0.15330E-04   -0.13831E-04  5544   0.384E-02    0.339E-02
DAV:   7    -0.948614589783E+02    0.10278E-04   -0.45460E-05  5576   0.334E-02    0.754E-03
DAV:   8    -0.948614591033E+02   -0.12500E-06   -0.50286E-06  3296   0.154E-02
  67 F= -.97882292E+02 E0= -.97884081E+02  d E =-.179055E-02
       N       E                     dE             d eps       ncg     rms          rms(c)
DAV:   1    -0.948530265201E+02    0.84325E-02   -0.23216E+00  5552   0.467E+00    0.413E-01
DAV:   2    -0.948627960593E+02   -0.97695E-02   -0.11007E-01  6800   0.103E+00    0.214E-01
DAV:   3    -0.948632366005E+02   -0.44054E-03   -0.78577E-03  7968   0.399E-01    0.195E-01
DAV:   4    -0.948631050444E+02    0.13156E-03   -0.25558E-03  7128   0.274E-01    0.128E-01
DAV:   5    -0.948630984814E+02    0.65631E-05   -0.93186E-04  6832   0.164E-01    0.863E-02
DAV:   6    -0.948632347333E+02   -0.13625E-03   -0.69954E-04  7592   0.839E-02    0.101E-01
DAV:   7    -0.948630825551E+02    0.15218E-03   -0.55590E-04  6312   0.103E-01    0.284E-02
DAV:   8    -0.948630701122E+02    0.12443E-04   -0.67331E-05  5672   0.454E-02    0.113E-02
DAV:   9    -0.948630703722E+02   -0.26001E-06   -0.14864E-05  4560   0.168E-02
  68 F= -.97884695E+02 E0= -.97886552E+02  d E =-.419374E-02
       N       E                     dE             d eps       ncg     rms          rms(c)
DAV:   1    -0.948622786915E+02    0.79142E-03   -0.47635E-01  5584   0.214E+00    0.177E-01
DAV:   2    -0.948643702825E+02   -0.20916E-02   -0.22622E-02  7072   0.486E-01    0.109E-01
DAV:   3    -0.948644162504E+02   -0.45968E-04   -0.22202E-03  7488   0.247E-01    0.112E-01
DAV:   4    -0.948642978897E+02    0.11836E-03   -0.62320E-04  6576   0.121E-01    0.630E-02
DAV:   5    -0.948643583900E+02   -0.60500E-04   -0.23688E-04  6768   0.507E-02    0.697E-02
DAV:   6    -0.948643409363E+02    0.17454E-04   -0.31818E-04  5608   0.912E-02    0.407E-02
DAV:   7    -0.948643126218E+02    0.28315E-04   -0.12534E-04  5904   0.642E-02    0.931E-03
DAV:   8    -0.948643119039E+02    0.71790E-06   -0.10185E-05  4128   0.213E-02
  69 F= -.97886297E+02 E0= -.97888240E+02  d E =-.160212E-02
       N       E                     dE             d eps       ncg     rms          rms(c)
DAV:   1    -0.948614859789E+02    0.28266E-02   -0.90611E-01  5600   0.295E+00    0.248E-01
DAV:   2    -0.948654695009E+02   -0.39835E-02   -0.43101E-02  6984   0.685E-01    0.150E-01
DAV:   3    -0.948656067721E+02   -0.13727E-03   -0.49428E-03  7416   0.374E-01    0.156E-01
DAV:   4    -0.948653404979E+02    0.26627E-03   -0.14535E-03  6928   0.195E-01    0.854E-02
DAV:   5    -0.948654304372E+02   -0.89939E-04   -0.43467E-04  7344   0.683E-02    0.889E-02
DAV:   6    -0.948654311464E+02   -0.70919E-06   -0.48916E-04  5936   0.104E-01    0.647E-02
DAV:   7    -0.948653730651E+02    0.58081E-04   -0.26033E-04  6064   0.937E-02    0.178E-02
DAV:   8    -0.948653688550E+02    0.42101E-05   -0.30259E-05  4984   0.355E-02
  70 F= -.97887858E+02 E0= -.97889913E+02  d E =-.316313E-02
       N       E                     dE             d eps       ncg     rms          rms(c)
DAV:   1    -0.948489748144E+02    0.16398E-01   -0.36148E+00  5584   0.594E+00    0.524E-01
DAV:   2    -0.948658998155E+02   -0.16925E-01   -0.18216E-01  7016   0.139E+00    0.318E-01
DAV:   3    -0.948666230810E+02   -0.72327E-03   -0.23200E-02  7496   0.739E-01    0.350E-01
DAV:   4    -0.948651764105E+02    0.14467E-02   -0.68178E-03  7288   0.398E-01    0.181E-01
DAV:   5    -0.948656047951E+02   -0.42838E-03   -0.19305E-03  8224   0.149E-01    0.194E-01
DAV:   6    -0.948654974595E+02    0.10734E-03   -0.21122E-03  6760   0.241E-01    0.124E-01
DAV:   7    -0.948653018243E+02    0.19564E-03   -0.96321E-04  6744   0.185E-01    0.369E-02
DAV:   8    -0.948652797082E+02    0.22116E-04   -0.14261E-04  7128   0.692E-02    0.174E-02
DAV:   9    -0.948652795232E+02    0.18499E-06   -0.37403E-05  5568   0.302E-02
  71 F= -.97888799E+02 E0= -.97891059E+02  d E =-.410390E-02
       N       E                     dE             d eps       ncg     rms          rms(c)
DAV:   1    -0.948649762633E+02    0.30344E-03   -0.26497E-01  5584   0.160E+00    0.128E-01
DAV:   2    -0.948660750863E+02   -0.10988E-02   -0.12061E-02  6840   0.354E-01    0.689E-02
DAV:   3    -0.948660909299E+02   -0.15844E-04   -0.86944E-04  7064   0.140E-01    0.600E-02
DAV:   4    -0.948660718588E+02    0.19071E-04   -0.31226E-04  6856   0.974E-02    0.386E-02
DAV:   5    -0.948660851146E+02   -0.13256E-04   -0.13523E-04  6264   0.627E-02    0.374E-02
DAV:   6    -0.948660874123E+02   -0.22977E-05   -0.10767E-04  5304   0.383E-02    0.378E-02
DAV:   7    -0.948660756641E+02    0.11748E-04   -0.45764E-05  5296   0.289E-02    0.832E-03
DAV:   8    -0.948660757127E+02   -0.48582E-07   -0.53153E-06  3528   0.164E-02
  72 F= -.97889857E+02 E0= -.97892110E+02  d E =-.105777E-02
       N       E                     dE             d eps       ncg     rms          rms(c)
DAV:   1    -0.948573598242E+02    0.87158E-02   -0.23828E+00  5600   0.480E+00    0.383E-01
DAV:   2    -0.948673359615E+02   -0.99761E-02   -0.10908E-01  6824   0.106E+00    0.203E-01
DAV:   3    -0.948675522860E+02   -0.21632E-03   -0.84843E-03  7536   0.418E-01    0.190E-01
DAV:   4    -0.948672856598E+02    0.26663E-03   -0.29263E-03  7624   0.278E-01    0.116E-01
DAV:   5    -0.948673228441E+02   -0.37184E-04   -0.82933E-04  6896   0.139E-01    0.875E-02
DAV:   6    -0.948674342421E+02   -0.11140E-03   -0.46312E-04  7224   0.819E-02    0.931E-02
DAV:   7    -0.948673480419E+02    0.86200E-04   -0.56344E-04  6232   0.109E-01    0.449E-02
DAV:   8    -0.948673142026E+02    0.33839E-04   -0.12071E-04  5952   0.662E-02    0.113E-02
DAV:   9    -0.948673138285E+02    0.37414E-06   -0.21476E-05  5168   0.203E-02
  73 F= -.97891891E+02 E0= -.97894108E+02  d E =-.309192E-02
       N       E                     dE             d eps       ncg     rms          rms(c)
DAV:   1    -0.948234224917E+02    0.43892E-01   -0.95339E+00  5608   0.963E+00    0.814E-01
DAV:   2    -0.948651521725E+02   -0.41730E-01   -0.45493E-01  6880   0.211E+00    0.413E-01
DAV:   3    -0.948659758746E+02   -0.82370E-03   -0.32060E-02  7392   0.761E-01    0.403E-01
DAV:   4    -0.948649002440E+02    0.10756E-02   -0.11767E-02  7656   0.518E-01    0.250E-01
DAV:   5    -0.948651767892E+02   -0.27655E-03   -0.34496E-03  7488   0.219E-01    0.222E-01
DAV:   6    -0.948656458478E+02   -0.46906E-03   -0.35892E-03  7424   0.252E-01    0.211E-01
DAV:   7    -0.948649664026E+02    0.67945E-03   -0.25946E-03  7192   0.293E-01    0.577E-02
DAV:   8    -0.948649184790E+02    0.47924E-04   -0.31361E-04  7560   0.105E-01    0.233E-02
DAV:   9    -0.948649196698E+02   -0.11908E-05   -0.94329E-05  6728   0.388E-02
  74 F= -.97891139E+02 E0= -.97893288E+02  d E =-.234073E-02
       N       E                     dE             d eps       ncg     rms          rms(c)
DAV:   1    -0.948504550722E+02    0.14463E-01   -0.40540E+00  5584   0.624E+00    0.494E-01
DAV:   2    -0.948675734758E+02   -0.17118E-01   -0.18671E-01  7256   0.140E+00    0.277E-01
DAV:   3    -0.948677894861E+02   -0.21601E-03   -0.14386E-02  7392   0.584E-01    0.246E-01
DAV:   4    -0.948671839033E+02    0.60558E-03   -0.49225E-03  7696   0.382E-01    0.161E-01
DAV:   5    -0.948674995626E+02   -0.31566E-03   -0.21182E-03  7456   0.212E-01    0.171E-01
DAV:   6    -0.948673702863E+02    0.12928E-03   -0.16630E-03  7080   0.143E-01    0.131E-01
DAV:   7    -0.948672254632E+02    0.14482E-03   -0.59931E-04  6624   0.115E-01    0.374E-02
DAV:   8    -0.948672108008E+02    0.14662E-04   -0.10440E-04  7112   0.638E-02    0.140E-02
DAV:   9    -0.948672097577E+02    0.10431E-05   -0.30832E-05  5200   0.255E-02
  75 F= -.97892350E+02 E0= -.97894551E+02  d E =-.355142E-02
       N       E                     dE             d eps       ncg     rms          rms(c)
DAV:   1    -0.948678195306E+02   -0.60873E-03   -0.18470E-02  5456   0.380E-01    0.431E-02
DAV:   2    -0.948679112303E+02   -0.91700E-04   -0.10279E-03  7192   0.108E-01    0.329E-02
DAV:   3    -0.948679145887E+02   -0.33584E-05   -0.23530E-04  6176   0.803E-02    0.290E-02
DAV:   4    -0.948679031470E+02    0.11442E-04   -0.67535E-05  5984   0.406E-02    0.147E-02
DAV:   5    -0.948679068046E+02   -0.36577E-05   -0.21179E-05  4568   0.183E-02
  76 F= -.97893102E+02 E0= -.97895262E+02  d E =-.752300E-03
       N       E                     dE             d eps       ncg     rms          rms(c)
DAV:   1    -0.948684103665E+02   -0.50722E-03   -0.16668E-01  5456   0.114E+00    0.128E-01
DAV:   2    -0.948691759591E+02   -0.76559E-03   -0.86970E-03  6912   0.322E-01    0.959E-02
DAV:   3    -0.948691901848E+02   -0.14226E-04   -0.23142E-03  7400   0.260E-01    0.769E-02
DAV:   4    -0.948690935215E+02    0.96663E-04   -0.63580E-04  6816   0.146E-01    0.394E-02
DAV:   5    -0.948691246803E+02   -0.31159E-04   -0.21211E-04  7104   0.706E-02    0.509E-02
DAV:   6    -0.948691001765E+02    0.24504E-04   -0.17588E-04  6304   0.542E-02    0.305E-02
DAV:   7    -0.948690876864E+02    0.12490E-04   -0.30127E-05  4952   0.221E-02    0.761E-03
DAV:   8    -0.948690876867E+02   -0.25466E-09   -0.61780E-06  3328   0.163E-02
  77 F= -.97894451E+02 E0= -.97896433E+02  d E =-.210033E-02
       N       E                     dE             d eps       ncg     rms          rms(c)
DAV:   1    -0.948647426064E+02    0.43451E-02   -0.66863E-01  5456   0.226E+00    0.245E-01
DAV:   2    -0.948675329164E+02   -0.27903E-02   -0.32306E-02  6928   0.610E-01    0.178E-01
DAV:   3    -0.948678223350E+02   -0.28942E-03   -0.72017E-03  7656   0.412E-01    0.176E-01
DAV:   4    -0.948674371088E+02    0.38523E-03   -0.19312E-03  6992   0.209E-01    0.913E-02
DAV:   5    -0.948675845261E+02   -0.14742E-03   -0.90162E-04  7704   0.118E-01    0.112E-01
DAV:   6    -0.948674254505E+02    0.15908E-03   -0.86292E-04  6808   0.154E-01    0.403E-02
DAV:   7    -0.948673891924E+02    0.36258E-04   -0.13842E-04  6696   0.740E-02    0.136E-02
DAV:   8    -0.948673897270E+02   -0.53459E-06   -0.30049E-05  5712   0.249E-02
  78 F= -.97893093E+02 E0= -.97894727E+02  d E =-.742414E-03
       N       E                     dE             d eps       ncg     rms          rms(c)
DAV:   1    -0.948677147498E+02   -0.32556E-03   -0.37706E-01  5456   0.169E+00    0.187E-01
DAV:   2    -0.948693278786E+02   -0.16131E-02   -0.18823E-02  7192   0.470E-01    0.144E-01
DAV:   3    -0.948694243967E+02   -0.96518E-04   -0.41670E-03  6984   0.320E-01    0.138E-01
DAV:   4    -0.948692204888E+02    0.20391E-03   -0.12346E-03  7160   0.157E-01    0.758E-02
DAV:   5    -0.948692668989E+02   -0.46410E-04   -0.52075E-04  6848   0.982E-02    0.766E-02
DAV:   6    -0.948691986522E+02    0.68247E-04   -0.44071E-04  6912   0.122E-01    0.308E-02
DAV:   7    -0.948691796678E+02    0.18984E-04   -0.75304E-05  6384   0.546E-02    0.109E-02
DAV:   8    -0.948691798444E+02   -0.17659E-06   -0.18587E-05  5208   0.215E-02
  79 F= -.97894626E+02 E0= -.97896519E+02  d E =-.227619E-02
       N       E                     dE             d eps       ncg     rms          rms(c)
DAV:   1    -0.948696023550E+02   -0.42269E-03   -0.15487E-02  5528   0.347E-01    0.360E-02
DAV:   2    -0.948696610301E+02   -0.58675E-04   -0.63078E-04  6896   0.890E-02    0.193E-02
DAV:   3    -0.948696655843E+02   -0.45542E-05   -0.53204E-05  6360   0.335E-02
  80 F= -.97895193E+02 E0= -.97897063E+02  d E =-.566838E-03
       N       E                     dE             d eps       ncg     rms          rms(c)
DAV:   1    -0.948701954945E+02   -0.53446E-03   -0.14026E-01  5536   0.105E+00    0.110E-01
DAV:   2    -0.948707313202E+02   -0.53583E-03   -0.56277E-03  6760   0.262E-01    0.757E-02
DAV:   3    -0.948708815029E+02   -0.15018E-03   -0.94256E-04  8392   0.118E-01    0.111E-01
DAV:   4    -0.948707428759E+02    0.13863E-03   -0.41818E-04  6088   0.690E-02    0.378E-02
DAV:   5    -0.948707751789E+02   -0.32303E-04   -0.24140E-04  5496   0.927E-02    0.370E-02
DAV:   6    -0.948707336344E+02    0.41544E-04   -0.13171E-04  4632   0.698E-02    0.703E-03
DAV:   7    -0.948707346337E+02   -0.99925E-06   -0.12814E-05  4296   0.162E-02
  81 F= -.97896506E+02 E0= -.97898353E+02  d E =-.188009E-02
       N       E                     dE             d eps       ncg     rms          rms(c)
DAV:   1    -0.948690106411E+02    0.17230E-02   -0.55985E-01  5544   0.209E+00    0.212E-01
DAV:   2    -0.948711081178E+02   -0.20975E-02   -0.22674E-02  6936   0.517E-01    0.118E-01
DAV:   3    -0.948712627488E+02   -0.15463E-03   -0.17080E-03  8400   0.170E-01    0.915E-02
DAV:   4    -0.948714230776E+02   -0.16033E-03   -0.10079E-03  6872   0.127E-01    0.127E-01
DAV:   5    -0.948712098828E+02    0.21319E-03   -0.50936E-04  6688   0.111E-01    0.253E-02
DAV:   6    -0.948712131362E+02   -0.32534E-05   -0.43463E-05  5592   0.377E-02
  82 F= -.97897478E+02 E0= -.97899231E+02  d E =-.285141E-02
       N       E                     dE             d eps       ncg     rms          rms(c)
DAV:   1    -0.948712411079E+02   -0.31225E-04   -0.43338E-03  5672   0.190E-01    0.199E-02
DAV:   2    -0.948712699025E+02   -0.28795E-04   -0.25153E-04  6824   0.762E-02    0.191E-02
DAV:   3    -0.948712602630E+02    0.96396E-05   -0.72194E-05  4792   0.552E-02
  83 F= -.97897481E+02 E0= -.97899269E+02  d E =-.285459E-02
       N       E                     dE             d eps       ncg     rms          rms(c)
DAV:   1    -0.948712344216E+02    0.35481E-04   -0.10547E-03  5712   0.950E-02    0.120E-02
DAV:   2    -0.948712504975E+02   -0.16076E-04   -0.87171E-05  6488   0.376E-02    0.284E-02
DAV:   3    -0.948712392078E+02    0.11290E-04   -0.29843E-05  4600   0.234E-02    0.476E-03
DAV:   4    -0.948712393249E+02   -0.11709E-06   -0.28713E-06  3200   0.106E-02
  84 F= -.97897482E+02 E0= -.97899258E+02  d E =-.285557E-02
       N       E                     dE             d eps       ncg     rms          rms(c)
DAV:   1    -0.948714454420E+02   -0.20623E-03   -0.12879E-02  5744   0.326E-01    0.318E-02
DAV:   2    -0.948714897534E+02   -0.44311E-04   -0.45949E-04  6936   0.768E-02    0.192E-02
DAV:   3    -0.948715010687E+02   -0.11315E-04   -0.64967E-05  5392   0.467E-02    0.244E-02
DAV:   4    -0.948714912732E+02    0.97955E-05   -0.36222E-05  4512   0.325E-02
  85 F= -.97897741E+02 E0= -.97899495E+02  d E =-.259492E-03
       N       E                     dE             d eps       ncg     rms          rms(c)
DAV:   1    -0.948716050740E+02   -0.10401E-03   -0.11564E-01  5728   0.976E-01    0.936E-02
DAV:   2    -0.948720206849E+02   -0.41561E-03   -0.41544E-03  6800   0.225E-01    0.772E-02
DAV:   3    -0.948720815429E+02   -0.60858E-04   -0.60847E-04  7136   0.968E-02    0.855E-02
DAV:   4    -0.948720171645E+02    0.64378E-04   -0.29857E-04  6056   0.619E-02    0.365E-02
DAV:   5    -0.948720332053E+02   -0.16041E-04   -0.24497E-04  5744   0.898E-02    0.340E-02
DAV:   6    -0.948719984813E+02    0.34724E-04   -0.10294E-04  4776   0.604E-02    0.464E-03
DAV:   7    -0.948719990450E+02   -0.56369E-06   -0.63829E-06  3696   0.128E-02
  86 F= -.97898273E+02 E0= -.97899980E+02  d E =-.790764E-03
       N       E                     dE             d eps       ncg     rms          rms(c)
DAV:   1    -0.948703257548E+02    0.16727E-02   -0.46197E-01  5728   0.195E+00    0.183E-01
DAV:   2    -0.948718720680E+02   -0.15463E-02   -0.16246E-02  6936   0.439E-01    0.112E-01
DAV:   3    -0.948720621135E+02   -0.19005E-03   -0.12409E-03  7944   0.157E-01    0.114E-01
DAV:   4    -0.948720094561E+02    0.52657E-04   -0.10023E-03  6728   0.139E-01    0.894E-02
DAV:   5    -0.948719138489E+02    0.95607E-04   -0.23305E-04  6240   0.641E-02    0.161E-02
DAV:   6    -0.948719154045E+02   -0.15556E-05   -0.53904E-05  4640   0.452E-02
  87 F= -.97898240E+02 E0= -.97899817E+02  d E =-.758062E-03
       N       E                     dE             d eps       ncg     rms          rms(c)
DAV:   1    -0.948716792821E+02    0.23457E-03   -0.13619E-01  5688   0.106E+00    0.994E-02
DAV:   2    -0.948721347673E+02   -0.45549E-03   -0.47869E-03  6784   0.244E-01    0.600E-02
DAV:   3    -0.948722236772E+02   -0.88910E-04   -0.52817E-04  7680   0.129E-01    0.713E-02
DAV:   4    -0.948721549781E+02    0.68699E-04   -0.33303E-04  6064   0.899E-02    0.383E-02
DAV:   5    -0.948721704159E+02   -0.15438E-04   -0.10783E-04  5344   0.451E-02    0.347E-02
DAV:   6    -0.948721446980E+02    0.25718E-04   -0.83996E-05  4840   0.540E-02    0.630E-03
DAV:   7    -0.948721453536E+02   -0.65556E-06   -0.83423E-06  3776   0.159E-02
  88 F= -.97898442E+02 E0= -.97900101E+02  d E =-.959648E-03
       N       E                     dE             d eps       ncg     rms          rms(c)
DAV:   1    -0.948723386119E+02   -0.19391E-03   -0.11322E-02  6072   0.303E-01    0.165E-02
DAV:   2    -0.948723745812E+02   -0.35969E-04   -0.36868E-04  7024   0.698E-02    0.125E-02
DAV:   3    -0.948723772582E+02   -0.26771E-05   -0.27201E-05  4752   0.198E-02
  89 F= -.97898675E+02 E0= -.97900349E+02  d E =-.233333E-03
       N       E                     dE             d eps       ncg     rms          rms(c)
DAV:   1    -0.948726620854E+02   -0.28750E-03   -0.10318E-01  6096   0.910E-01    0.468E-02
DAV:   2    -0.948729782855E+02   -0.31620E-03   -0.32893E-03  6840   0.209E-01    0.323E-02
DAV:   3    -0.948729944068E+02   -0.16121E-04   -0.23431E-04  7440   0.734E-02    0.334E-02
DAV:   4    -0.948729821185E+02    0.12288E-04   -0.63922E-05  5328   0.383E-02    0.196E-02
DAV:   5    -0.948729881718E+02   -0.60533E-05   -0.33356E-05  4536   0.277E-02
  90 F= -.97899291E+02 E0= -.97900943E+02  d E =-.849321E-03
       N       E                     dE             d eps       ncg     rms          rms(c)
DAV:   1    -0.948726088416E+02    0.37328E-03   -0.41113E-01  6080   0.183E+00    0.925E-02
DAV:   2    -0.948738733604E+02   -0.12645E-02   -0.13113E-02  6968   0.408E-01    0.650E-02
DAV:   3    -0.948739672933E+02   -0.93933E-04   -0.94768E-04  8144   0.122E-01    0.836E-02
DAV:   4    -0.948738931604E+02    0.74133E-04   -0.27809E-04  6120   0.596E-02    0.367E-02
DAV:   5    -0.948739047153E+02   -0.11555E-04   -0.12651E-04  5008   0.601E-02    0.333E-02
DAV:   6    -0.948738853769E+02    0.19338E-04   -0.72875E-05  4928   0.544E-02    0.964E-03
DAV:   7    -0.948738860321E+02   -0.65517E-06   -0.15025E-05  4248   0.223E-02
  91 F= -.97900202E+02 E0= -.97901898E+02  d E =-.176065E-02
       N       E                     dE             d eps       ncg     rms          rms(c)
DAV:   1    -0.948690668519E+02    0.48185E-02   -0.16444E+00  6112   0.365E+00    0.186E-01
DAV:   2    -0.948742296146E+02   -0.51628E-02   -0.53365E-02  6928   0.817E-01    0.135E-01
DAV:   3    -0.948746268496E+02   -0.39724E-03   -0.39642E-03  8464   0.241E-01    0.177E-01
DAV:   4    -0.948742784689E+02    0.34838E-03   -0.12026E-03  6928   0.124E-01    0.694E-02
DAV:   5    -0.948743159516E+02   -0.37483E-04   -0.48358E-04  6344   0.117E-01    0.629E-02
DAV:   6    -0.948742501998E+02    0.65752E-04   -0.26610E-04  6000   0.104E-01    0.216E-02
DAV:   7    -0.948742515377E+02   -0.13379E-05   -0.64090E-05  5664   0.426E-02
  92 F= -.97900608E+02 E0= -.97902338E+02  d E =-.216647E-02
       N       E                     dE             d eps       ncg     rms          rms(c)
DAV:   1    -0.948738301960E+02    0.42000E-03   -0.16823E-01  6096   0.117E+00    0.596E-02
DAV:   2    -0.948743447364E+02   -0.51454E-03   -0.52686E-03  6872   0.260E-01    0.454E-02
DAV:   3    -0.948743888128E+02   -0.44076E-04   -0.42639E-04  7984   0.764E-02    0.617E-02
DAV:   4    -0.948743444279E+02    0.44385E-04   -0.13137E-04  5720   0.421E-02    0.201E-02
DAV:   5    -0.948743488328E+02   -0.44049E-05   -0.46661E-05  4320   0.410E-02
  93 F= -.97900690E+02 E0= -.97902437E+02  d E =-.224890E-02
       N       E                     dE             d eps       ncg     rms          rms(c)
DAV:   1    -0.948744897653E+02   -0.14534E-03   -0.16059E-01  5848   0.121E+00    0.693E-02
DAV:   2    -0.948750605430E+02   -0.57078E-03   -0.60786E-03  7016   0.278E-01    0.369E-02
DAV:   3    -0.948750769118E+02   -0.16369E-04   -0.32366E-04  7560   0.938E-02    0.338E-02
DAV:   4    -0.948750745918E+02    0.23200E-05   -0.11486E-04  5976   0.569E-02    0.289E-02
DAV:   5    -0.948750687825E+02    0.58093E-05   -0.29116E-05  4736   0.208E-02
  94 F= -.97901325E+02 E0= -.97903037E+02  d E =-.634444E-03
       N       E                     dE             d eps       ncg     rms          rms(c)
DAV:   1    -0.948716585463E+02    0.34160E-02   -0.13093E+00  5880   0.346E+00    0.192E-01
DAV:   2    -0.948762923222E+02   -0.46338E-02   -0.49267E-02  7304   0.787E-01    0.107E-01
DAV:   3    -0.948764216786E+02   -0.12936E-03   -0.27725E-03  8016   0.291E-01    0.912E-02
DAV:   4    -0.948763773446E+02    0.44334E-04   -0.99962E-04  7328   0.182E-01    0.743E-02
DAV:   5    -0.948763953624E+02   -0.18018E-04   -0.39376E-04  7432   0.745E-02    0.736E-02
DAV:   6    -0.948763542973E+02    0.41065E-04   -0.25522E-04  5704   0.571E-02    0.382E-02
DAV:   7    -0.948763435634E+02    0.10734E-04   -0.77439E-05  5608   0.374E-02    0.109E-02
DAV:   8    -0.948763419222E+02    0.16411E-05   -0.91921E-06  4104   0.187E-02
  95 F= -.97902361E+02 E0= -.97904036E+02  d E =-.167028E-02
       N       E                     dE             d eps       ncg     rms          rms(c)
DAV:   1    -0.948757445222E+02    0.59904E-03   -0.22485E-01  5872   0.144E+00    0.784E-02
DAV:   2    -0.948765307689E+02   -0.78625E-03   -0.83687E-03  7104   0.322E-01    0.438E-02
DAV:   3    -0.948765517002E+02   -0.20931E-04   -0.40954E-04  7600   0.956E-02    0.393E-02
DAV:   4    -0.948765553245E+02   -0.36243E-05   -0.14330E-04  6264   0.595E-02    0.370E-02
DAV:   5    -0.948765432298E+02    0.12095E-04   -0.36855E-05  4760   0.244E-02    0.160E-02
DAV:   6    -0.948765476600E+02   -0.44302E-05   -0.28475E-05  4176   0.355E-02
  96 F= -.97902471E+02 E0= -.97904092E+02  d E =-.178062E-02
       N       E                     dE             d eps       ncg     rms          rms(c)
DAV:   1    -0.948766975551E+02   -0.15433E-03   -0.76481E-02  5848   0.854E-01    0.534E-02
DAV:   2    -0.948769931764E+02   -0.29562E-03   -0.31081E-03  7008   0.196E-01    0.356E-02
DAV:   3    -0.948770059289E+02   -0.12753E-04   -0.26882E-04  7280   0.826E-02    0.367E-02
DAV:   4    -0.948769902012E+02    0.15728E-04   -0.77884E-05  5736   0.415E-02    0.192E-02
DAV:   5    -0.948769954615E+02   -0.52603E-05   -0.30010E-05  4512   0.245E-02
  97 F= -.97902894E+02 E0= -.97904562E+02  d E =-.422898E-03
       N       E                     dE             d eps       ncg     rms          rms(c)
DAV:   1    -0.948751051482E+02    0.18851E-02   -0.68780E-01  5840   0.256E+00    0.158E-01
DAV:   2    -0.948777438685E+02   -0.26387E-02   -0.27699E-02  7032   0.575E-01    0.100E-01
DAV:   3    -0.948778548826E+02   -0.11101E-03   -0.22956E-03  7792   0.238E-01    0.985E-02
DAV:   4    -0.948777420514E+02    0.11283E-03   -0.70298E-04  6848   0.132E-01    0.568E-02
DAV:   5    -0.948777804733E+02   -0.38422E-04   -0.22398E-04  6760   0.517E-02    0.586E-02
DAV:   6    -0.948777583597E+02    0.22114E-04   -0.25107E-04  5672   0.894E-02    0.331E-02
DAV:   7    -0.948777414648E+02    0.16895E-04   -0.80047E-05  5440   0.519E-02    0.841E-03
DAV:   8    -0.948777400589E+02    0.14059E-05   -0.82159E-06  3696   0.195E-02
  98 F= -.97903567E+02 E0= -.97905352E+02  d E =-.109545E-02
       N       E                     dE             d eps       ncg     rms          rms(c)
DAV:   1    -0.948776130719E+02    0.12839E-03   -0.46347E-02  5856   0.665E-01    0.413E-02
DAV:   2    -0.948777921620E+02   -0.17909E-03   -0.18856E-03  7024   0.150E-01    0.256E-02
DAV:   3    -0.948778004669E+02   -0.83049E-05   -0.13885E-04  6504   0.541E-02    0.270E-02
DAV:   4    -0.948777934316E+02    0.70353E-05   -0.44625E-05  5376   0.306E-02
  99 F= -.97903602E+02 E0= -.97905420E+02  d E =-.113077E-02
       N       E                     dE             d eps       ncg     rms          rms(c)
DAV:   1    -0.948779224098E+02   -0.12194E-03   -0.22691E-02  5768   0.495E-01    0.319E-02
DAV:   2    -0.948780530996E+02   -0.13069E-03   -0.12202E-03  7008   0.137E-01    0.419E-02
DAV:   3    -0.948780377229E+02    0.15377E-04   -0.21156E-04  6256   0.746E-02    0.271E-02
DAV:   4    -0.948780303672E+02    0.73558E-05   -0.25926E-05  4664   0.230E-02
 100 F= -.97903846E+02 E0= -.97905660E+02  d E =-.243713E-03
