       N       E                     dE             d eps       ncg     rms          rms(c)
DAV:   1     0.284161149140E+04    0.28416E+04   -0.88329E+04  7048   0.225E+03
DAV:   2     0.565896572962E+03   -0.22757E+04   -0.21798E+04  5608   0.744E+02
DAV:   3    -0.131046110266E+02   -0.57900E+03   -0.55123E+03  6512   0.263E+02
DAV:   4    -0.963921172762E+02   -0.83288E+02   -0.81708E+02  7872   0.102E+02
DAV:   5    -0.102495258344E+03   -0.61031E+01   -0.60338E+01  8320   0.273E+01    0.335E+01
DAV:   6    -0.983127589678E+02    0.41825E+01   -0.57656E+01  8144   0.242E+01    0.337E+01
DAV:   7    -0.100280864993E+03   -0.19681E+01   -0.17293E+02  7312   0.330E+01    0.232E+01
DAV:   8    -0.998000690259E+02    0.48080E+00   -0.40844E+01  8184   0.237E+01    0.193E+01
DAV:   9    -0.967503909199E+02    0.30497E+01   -0.24324E+01  7072   0.126E+01    0.114E+01
DAV:  10    -0.926056762407E+02    0.41447E+01   -0.96455E+00  7536   0.786E+00    0.572E+00
DAV:  11    -0.921471953646E+02    0.45848E+00   -0.26931E+00  7936   0.670E+00    0.227E+00
DAV:  12    -0.921571952115E+02   -0.99998E-02   -0.25801E-01  7256   0.163E+00    0.186E+00
DAV:  13    -0.921534784191E+02    0.37168E-02   -0.21749E-02  8224   0.889E-01    0.171E+00
DAV:  14    -0.921423219226E+02    0.11156E-01   -0.78463E-02  7192   0.136E+00    0.124E+00
DAV:  15    -0.921359402618E+02    0.63817E-02   -0.31312E-02  7472   0.800E-01    0.107E+00
DAV:  16    -0.921330065964E+02    0.29337E-02   -0.39819E-03  7192   0.378E-01    0.916E-01
DAV:  17    -0.921311900555E+02    0.18165E-02   -0.18733E-03  7320   0.312E-01    0.753E-01
DAV:  18    -0.921274529010E+02    0.37372E-02   -0.61455E-03  7336   0.446E-01    0.349E-01
DAV:  19    -0.921272858259E+02    0.16708E-03   -0.15037E-03  7136   0.211E-01    0.227E-01
DAV:  20    -0.921275027486E+02   -0.21692E-03   -0.31632E-04  7488   0.127E-01    0.116E-01
DAV:  21    -0.921279242379E+02   -0.42149E-03   -0.45238E-04  6736   0.132E-01    0.369E-02
DAV:  22    -0.921281974801E+02   -0.27324E-03   -0.42122E-04  7416   0.923E-02    0.594E-02
DAV:  23    -0.921284698897E+02   -0.27241E-03   -0.79229E-05  5632   0.427E-02    0.552E-02
DAV:  24    -0.921287275086E+02   -0.25762E-03   -0.36750E-05  5128   0.385E-02    0.366E-02
DAV:  25    -0.921289252963E+02   -0.19779E-03   -0.11259E-05  4392   0.224E-02    0.237E-02
DAV:  26    -0.921290660738E+02   -0.14078E-03   -0.13327E-05  4656   0.238E-02    0.864E-03
DAV:  27    -0.921290977826E+02   -0.31709E-04   -0.55368E-06  3952   0.117E-02    0.140E-03
DAV:  28    -0.921291101087E+02   -0.12326E-04   -0.22034E-06  3568   0.882E-03    0.118E-03
DAV:  29    -0.921291184208E+02   -0.83121E-05   -0.16458E-06  3688   0.663E-03
   1 F= -.95038273E+02 E0= -.95043356E+02  d E =-.950383E+02
       N       E                     dE             d eps       ncg     rms          rms(c)
DAV:   1    -0.921292354176E+02   -0.12531E-03   -0.20081E-01  6192   0.139E+00    0.126E-01
DAV:   2    -0.921297903518E+02   -0.55493E-03   -0.89493E-03  6800   0.331E-01    0.715E-02
DAV:   3    -0.921298635645E+02   -0.73213E-04   -0.10353E-03  7376   0.130E-01    0.685E-02
DAV:   4    -0.921298408206E+02    0.22744E-04   -0.46870E-04  6552   0.844E-02    0.587E-02
DAV:   5    -0.921298370899E+02    0.37307E-05   -0.28833E-04  5784   0.558E-02    0.384E-02
DAV:   6    -0.921298106308E+02    0.26459E-04   -0.22876E-04  6080   0.662E-02    0.163E-02
DAV:   7    -0.921298060525E+02    0.45782E-05   -0.24085E-05  4400   0.230E-02
   2 F= -.95038589E+02 E0= -.95043659E+02  d E =-.315794E-03
       N       E                     dE             d eps       ncg     rms          rms(c)
DAV:   1    -0.921297799582E+02    0.30673E-04   -0.31024E-02  6000   0.548E-01    0.502E-02
DAV:   2    -0.921298657081E+02   -0.85750E-04   -0.14094E-03  6856   0.135E-01    0.279E-02
DAV:   3    -0.921298755612E+02   -0.98531E-05   -0.16513E-04  6144   0.616E-02    0.216E-02
DAV:   4    -0.921298708406E+02    0.47206E-05   -0.78166E-05  5120   0.437E-02
   3 F= -.95038799E+02 E0= -.95043881E+02  d E =-.526432E-03
       N       E                     dE             d eps       ncg     rms          rms(c)
DAV:   1    -0.921302195682E+02   -0.34401E-03   -0.10272E-01  6104   0.102E+00    0.135E-01
DAV:   2    -0.921306616936E+02   -0.44213E-03   -0.46601E-03  6632   0.250E-01    0.751E-02
DAV:   3    -0.921309650040E+02   -0.30331E-03   -0.17760E-03  7496   0.176E-01    0.129E-01
DAV:   4    -0.921306695543E+02    0.29545E-03   -0.11745E-03  6240   0.124E-01    0.304E-02
DAV:   5    -0.921306802502E+02   -0.10696E-04   -0.14938E-04  6080   0.499E-02    0.273E-02
DAV:   6    -0.921306635515E+02    0.16699E-04   -0.75029E-05  5080   0.427E-02    0.744E-03
DAV:   7    -0.921306637775E+02   -0.22602E-06   -0.70270E-06  3584   0.181E-02
   4 F= -.95039407E+02 E0= -.95044470E+02  d E =-.608223E-03
       N       E                     dE             d eps       ncg     rms          rms(c)
DAV:   1    -0.921305331002E+02    0.13045E-03   -0.20773E-01  6072   0.145E+00    0.190E-01
DAV:   2    -0.921314089375E+02   -0.87584E-03   -0.93017E-03  6424   0.346E-01    0.100E-01
DAV:   3    -0.921315072518E+02   -0.98314E-04   -0.90829E-04  8240   0.136E-01    0.661E-02
DAV:   4    -0.921314891155E+02    0.18136E-04   -0.68579E-04  6520   0.117E-01    0.576E-02
DAV:   5    -0.921314688696E+02    0.20246E-04   -0.25637E-04  5776   0.419E-02    0.370E-02
DAV:   6    -0.921314416597E+02    0.27210E-04   -0.14024E-04  4800   0.453E-02    0.103E-02
DAV:   7    -0.921314413413E+02    0.31839E-06   -0.12991E-05  4040   0.196E-02
   5 F= -.95039927E+02 E0= -.95044974E+02  d E =-.112804E-02
       N       E                     dE             d eps       ncg     rms          rms(c)
DAV:   1    -0.921280279995E+02    0.34137E-02   -0.82937E-01  6048   0.290E+00    0.383E-01
DAV:   2    -0.921315256531E+02   -0.34977E-02   -0.37168E-02  6368   0.690E-01    0.201E-01
DAV:   3    -0.921318806070E+02   -0.35495E-03   -0.35978E-03  8368   0.269E-01    0.111E-01
DAV:   4    -0.921318320786E+02    0.48528E-04   -0.30004E-03  7352   0.264E-01    0.857E-02
DAV:   5    -0.921316572988E+02    0.17478E-03   -0.69271E-04  6360   0.130E-01    0.235E-02
DAV:   6    -0.921316777302E+02   -0.20431E-04   -0.13707E-04  6704   0.418E-02    0.354E-02
DAV:   7    -0.921316615751E+02    0.16155E-04   -0.10330E-04  5232   0.332E-02    0.145E-02
DAV:   8    -0.921316583289E+02    0.32462E-05   -0.17320E-05  4160   0.240E-02
   6 F= -.95039642E+02 E0= -.95044656E+02  d E =-.842790E-03
       N       E                     dE             d eps       ncg     rms          rms(c)
DAV:   1    -0.921299608676E+02    0.17007E-02   -0.39956E-01  6032   0.202E+00    0.265E-01
DAV:   2    -0.921316289317E+02   -0.16681E-02   -0.17708E-02  6400   0.482E-01    0.140E-01
DAV:   3    -0.921318057676E+02   -0.17684E-03   -0.17866E-03  8264   0.233E-01    0.724E-02
DAV:   4    -0.921317913968E+02    0.14371E-04   -0.17484E-03  6704   0.208E-01    0.537E-02
DAV:   5    -0.921317229018E+02    0.68495E-04   -0.60364E-04  6448   0.102E-01    0.443E-02
DAV:   6    -0.921317027637E+02    0.20138E-04   -0.15096E-04  6216   0.416E-02    0.193E-02
DAV:   7    -0.921317015539E+02    0.12098E-05   -0.24006E-05  4576   0.205E-02
   7 F= -.95040032E+02 E0= -.95045068E+02  d E =-.123306E-02
       N       E                     dE             d eps       ncg     rms          rms(c)
DAV:   1    -0.921316476162E+02    0.55148E-04   -0.13099E-01  6136   0.107E+00    0.646E-02
DAV:   2    -0.921320464606E+02   -0.39884E-03   -0.44167E-03  6600   0.245E-01    0.416E-02
DAV:   3    -0.921320860150E+02   -0.39554E-04   -0.44559E-04  8088   0.891E-02    0.517E-02
DAV:   4    -0.921320608470E+02    0.25168E-04   -0.16205E-04  5792   0.404E-02    0.272E-02
DAV:   5    -0.921320650172E+02   -0.41702E-05   -0.10806E-04  4688   0.427E-02    0.214E-02
DAV:   6    -0.921320545763E+02    0.10441E-04   -0.56174E-05  4880   0.339E-02    0.681E-03
DAV:   7    -0.921320548886E+02   -0.31225E-06   -0.49738E-06  3456   0.110E-02
   8 F= -.95040460E+02 E0= -.95045485E+02  d E =-.427365E-03
       N       E                     dE             d eps       ncg     rms          rms(c)
DAV:   1    -0.921320389283E+02    0.15648E-04   -0.55515E-03  6088   0.221E-01    0.127E-02
DAV:   2    -0.921320568462E+02   -0.17918E-04   -0.19624E-04  6704   0.527E-02    0.824E-03
DAV:   3    -0.921320576642E+02   -0.81796E-06   -0.14554E-05  3864   0.196E-02
   9 F= -.95040478E+02 E0= -.95045501E+02  d E =-.445532E-03
       N       E                     dE             d eps       ncg     rms          rms(c)
DAV:   1    -0.921321251599E+02   -0.68314E-04   -0.61107E-02  5864   0.697E-01    0.112E-01
DAV:   2    -0.921323137664E+02   -0.18861E-03   -0.20444E-03  6968   0.162E-01    0.728E-02
DAV:   3    -0.921323645364E+02   -0.50770E-04   -0.38997E-04  7360   0.107E-01    0.457E-02
DAV:   4    -0.921323364482E+02    0.28088E-04   -0.44957E-04  6016   0.100E-01    0.329E-02
DAV:   5    -0.921323237591E+02    0.12689E-04   -0.82324E-05  5024   0.295E-02    0.195E-02
DAV:   6    -0.921323161363E+02    0.76228E-05   -0.31475E-05  4240   0.204E-02
  10 F= -.95040847E+02 E0= -.95045866E+02  d E =-.368779E-03
       N       E                     dE             d eps       ncg     rms          rms(c)
DAV:   1    -0.921317794034E+02    0.54436E-03   -0.20285E-01  5912   0.127E+00    0.199E-01
DAV:   2    -0.921324082345E+02   -0.62883E-03   -0.67585E-03  6872   0.288E-01    0.133E-01
DAV:   3    -0.921327756595E+02   -0.36743E-03   -0.18707E-03  7672   0.182E-01    0.164E-01
DAV:   4    -0.921324889166E+02    0.28674E-03   -0.17931E-03  6592   0.112E-01    0.737E-02
DAV:   5    -0.921324873964E+02    0.15202E-05   -0.10775E-03  5808   0.130E-01    0.457E-02
DAV:   6    -0.921324021031E+02    0.85293E-04   -0.36203E-04  5440   0.846E-02    0.773E-03
DAV:   7    -0.921324032706E+02   -0.11675E-05   -0.15100E-05  4568   0.174E-02
  11 F= -.95041137E+02 E0= -.95046143E+02  d E =-.659228E-03
       N       E                     dE             d eps       ncg     rms          rms(c)
DAV:   1    -0.921324992732E+02   -0.97170E-04   -0.18438E-02  6008   0.402E-01    0.202E-02
DAV:   2    -0.921325625697E+02   -0.63297E-04   -0.64931E-04  6936   0.925E-02    0.175E-02
DAV:   3    -0.921325671794E+02   -0.46097E-05   -0.53017E-05  5504   0.257E-02
  12 F= -.95041332E+02 E0= -.95046326E+02  d E =-.194888E-03
