       N       E                     dE             d eps       ncg     rms          rms(c)
DAV:   1     0.293474792119E+04    0.29347E+04   -0.89569E+04  7056   0.229E+03
DAV:   2     0.599842437913E+03   -0.23349E+04   -0.22361E+04  5632   0.758E+02
DAV:   3    -0.697766992492E+01   -0.60682E+03   -0.57779E+03  6624   0.268E+02
DAV:   4    -0.938693274254E+02   -0.86892E+02   -0.85178E+02  7880   0.105E+02
DAV:   5    -0.999832773843E+02   -0.61139E+01   -0.60291E+01  8216   0.276E+01    0.284E+01
DAV:   6    -0.993921260731E+02    0.59115E+00   -0.45351E+01  8888   0.222E+01    0.324E+01
DAV:   7    -0.990000477423E+02    0.39208E+00   -0.17758E+02  7136   0.294E+01    0.190E+01
DAV:   8    -0.997663207239E+02   -0.76627E+00   -0.40041E+01  7448   0.199E+01    0.175E+01
DAV:   9    -0.965036250147E+02    0.32627E+01   -0.20449E+01  7280   0.112E+01    0.113E+01
DAV:  10    -0.937770951079E+02    0.27265E+01   -0.54226E+00  6960   0.710E+00    0.812E+00
DAV:  11    -0.928080506440E+02    0.96904E+00   -0.22634E+00  7912   0.438E+00    0.484E+00
DAV:  12    -0.924911154573E+02    0.31694E+00   -0.49691E-01  8384   0.208E+00    0.228E+00
DAV:  13    -0.925207014922E+02   -0.29586E-01   -0.83278E-02  7216   0.163E+00    0.242E+00
DAV:  14    -0.924422338255E+02    0.78468E-01   -0.92381E-02  7952   0.116E+00    0.115E+00
DAV:  15    -0.924282206582E+02    0.14013E-01   -0.78773E-02  8048   0.814E-01    0.397E-01
DAV:  16    -0.924319924942E+02   -0.37718E-02   -0.30402E-02  6872   0.651E-01    0.583E-01
DAV:  17    -0.924279513690E+02    0.40411E-02   -0.42116E-03  6936   0.275E-01    0.306E-01
DAV:  18    -0.924267073717E+02    0.12440E-02   -0.52336E-03  7824   0.215E-01    0.814E-02
DAV:  19    -0.924268323206E+02   -0.12495E-03   -0.78764E-04  6896   0.116E-01    0.311E-02
DAV:  20    -0.924270927213E+02   -0.26040E-03   -0.21253E-04  5896   0.596E-02    0.461E-02
DAV:  21    -0.924272500845E+02   -0.15736E-03   -0.14607E-04  5744   0.557E-02    0.360E-02
DAV:  22    -0.924275516235E+02   -0.30154E-03   -0.75562E-05  4680   0.408E-02    0.150E-02
DAV:  23    -0.924277093851E+02   -0.15776E-03   -0.27646E-05  5224   0.182E-02    0.569E-03
DAV:  24    -0.924279108997E+02   -0.20151E-03   -0.73408E-06  4432   0.162E-02    0.996E-03
DAV:  25    -0.924279924248E+02   -0.81525E-04   -0.29426E-06  4120   0.121E-02    0.532E-03
DAV:  26    -0.924280443024E+02   -0.51878E-04   -0.29953E-06  3944   0.823E-03    0.733E-03
DAV:  27    -0.924280770690E+02   -0.32767E-04   -0.24866E-06  4136   0.833E-03    0.562E-03
DAV:  28    -0.924280837048E+02   -0.66357E-05   -0.12514E-06  3528   0.547E-03
   1 F= -.95379318E+02 E0= -.95378071E+02  d E =-.953793E+02
       N       E                     dE             d eps       ncg     rms          rms(c)
DAV:   1    -0.924233810535E+02    0.46960E-02   -0.92774E-01  6088   0.302E+00    0.220E-01
DAV:   2    -0.924274461839E+02   -0.40651E-02   -0.46638E-02  6824   0.655E-01    0.158E-01
DAV:   3    -0.924279567102E+02   -0.51053E-03   -0.45310E-03  8936   0.256E-01    0.214E-01
DAV:   4    -0.924274193935E+02    0.53732E-03   -0.21885E-03  7304   0.160E-01    0.912E-02
DAV:   5    -0.924273671754E+02    0.52218E-04   -0.44019E-04  6512   0.104E-01    0.378E-02
DAV:   6    -0.924273767718E+02   -0.95964E-05   -0.44469E-04  6592   0.107E-01    0.316E-02
DAV:   7    -0.924273402579E+02    0.36514E-04   -0.14883E-04  5120   0.611E-02    0.846E-03
DAV:   8    -0.924273422579E+02   -0.20001E-05   -0.13859E-05  4328   0.234E-02
   2 F= -.95379020E+02 E0= -.95377790E+02  d E =0.297573E-03
       N       E                     dE             d eps       ncg     rms          rms(c)
DAV:   1    -0.924280050622E+02   -0.66480E-03   -0.26085E-01  6560   0.156E+00    0.116E-01
DAV:   2    -0.924291093173E+02   -0.11043E-02   -0.12587E-02  6680   0.347E-01    0.868E-02
DAV:   3    -0.924292660430E+02   -0.15673E-03   -0.13358E-03  7696   0.139E-01    0.117E-01
DAV:   4    -0.924291010994E+02    0.16494E-03   -0.62999E-04  6536   0.898E-02    0.455E-02
DAV:   5    -0.924291025420E+02   -0.14426E-05   -0.14541E-04  6040   0.594E-02    0.227E-02
DAV:   6    -0.924290939474E+02    0.85946E-05   -0.11221E-04  5192   0.561E-02    0.132E-02
DAV:   7    -0.924290911715E+02    0.27759E-05   -0.26995E-05  4128   0.280E-02
   3 F= -.95380532E+02 E0= -.95379290E+02  d E =-.121480E-02
       N       E                     dE             d eps       ncg     rms          rms(c)
DAV:   1    -0.924296765478E+02   -0.58260E-03   -0.25916E-02  5944   0.488E-01    0.296E-02
DAV:   2    -0.924298084385E+02   -0.13189E-03   -0.13701E-03  6312   0.117E-01    0.276E-02
DAV:   3    -0.924298194467E+02   -0.11008E-04   -0.13545E-04  6232   0.393E-02    0.311E-02
DAV:   4    -0.924298076708E+02    0.11776E-04   -0.39758E-05  4704   0.254E-02    0.995E-03
DAV:   5    -0.924298101575E+02   -0.24867E-05   -0.19484E-05  3632   0.260E-02
   4 F= -.95381326E+02 E0= -.95380084E+02  d E =-.793862E-03
       N       E                     dE             d eps       ncg     rms          rms(c)
DAV:   1    -0.924306051521E+02   -0.79748E-03   -0.23400E-01  6320   0.147E+00    0.851E-02
DAV:   2    -0.924317659092E+02   -0.11608E-02   -0.12239E-02  6280   0.342E-01    0.729E-02
DAV:   3    -0.924318695433E+02   -0.10363E-03   -0.10607E-03  8040   0.109E-01    0.880E-02
DAV:   4    -0.924317825031E+02    0.87040E-04   -0.31889E-04  5680   0.611E-02    0.319E-02
DAV:   5    -0.924318017797E+02   -0.19277E-04   -0.17917E-04  4992   0.712E-02    0.260E-02
DAV:   6    -0.924317787456E+02    0.23034E-04   -0.10379E-04  4536   0.488E-02    0.935E-03
DAV:   7    -0.924317797398E+02   -0.99416E-06   -0.10045E-05  3432   0.126E-02
   5 F= -.95383522E+02 E0= -.95382255E+02  d E =-.299005E-02
       N       E                     dE             d eps       ncg     rms          rms(c)
DAV:   1    -0.924301280941E+02    0.16507E-02   -0.93553E-01  6160   0.293E+00    0.170E-01
DAV:   2    -0.924348208911E+02   -0.46928E-02   -0.49558E-02  6496   0.689E-01    0.140E-01
DAV:   3    -0.924352506804E+02   -0.42979E-03   -0.41561E-03  8528   0.218E-01    0.176E-01
DAV:   4    -0.924349014216E+02    0.34926E-03   -0.12835E-03  6888   0.123E-01    0.623E-02
DAV:   5    -0.924349716070E+02   -0.70185E-04   -0.67205E-04  6136   0.133E-01    0.510E-02
DAV:   6    -0.924348862009E+02    0.85406E-04   -0.39641E-04  5688   0.896E-02    0.187E-02
DAV:   7    -0.924348894386E+02   -0.32377E-05   -0.37038E-05  5104   0.200E-02
   6 F= -.95387094E+02 E0= -.95385790E+02  d E =-.656186E-02
       N       E                     dE             d eps       ncg     rms          rms(c)
DAV:   1    -0.924181129157E+02    0.16773E-01   -0.37441E+00  6152   0.586E+00    0.341E-01
DAV:   2    -0.924373204194E+02   -0.19208E-01   -0.20306E-01  6560   0.139E+00    0.270E-01
DAV:   3    -0.924390503201E+02   -0.17299E-02   -0.16039E-02  8520   0.444E-01    0.346E-01
DAV:   4    -0.924377298044E+02    0.13205E-02   -0.50229E-03  7432   0.226E-01    0.126E-01
DAV:   5    -0.924379942388E+02   -0.26443E-03   -0.26706E-03  6744   0.270E-01    0.102E-01
DAV:   6    -0.924376561971E+02    0.33804E-03   -0.15709E-03  6152   0.170E-01    0.385E-02
DAV:   7    -0.924376665163E+02   -0.10319E-04   -0.14629E-04  6120   0.407E-02    0.196E-02
DAV:   8    -0.924376659749E+02    0.54142E-06   -0.18352E-05  4544   0.254E-02
   7 F= -.95390830E+02 E0= -.95389464E+02  d E =-.102976E-01
       N       E                     dE             d eps       ncg     rms          rms(c)
DAV:   1    -0.924359114732E+02    0.17550E-02   -0.33279E-01  6000   0.174E+00    0.997E-02
DAV:   2    -0.924375765107E+02   -0.16650E-02   -0.17575E-02  6672   0.411E-01    0.853E-02
DAV:   3    -0.924377179173E+02   -0.14141E-03   -0.14578E-03  8208   0.127E-01    0.102E-01
DAV:   4    -0.924376021398E+02    0.11578E-03   -0.43020E-04  5808   0.708E-02    0.378E-02
DAV:   5    -0.924376292714E+02   -0.27132E-04   -0.24019E-04  5632   0.796E-02    0.315E-02
DAV:   6    -0.924375973537E+02    0.31918E-04   -0.14314E-04  4920   0.540E-02    0.114E-02
DAV:   7    -0.924375990401E+02   -0.16864E-05   -0.13888E-05  4064   0.157E-02
   8 F= -.95391058E+02 E0= -.95389678E+02  d E =-.105253E-01
       N       E                     dE             d eps       ncg     rms          rms(c)
DAV:   1    -0.924377237696E+02   -0.12642E-03   -0.13184E-02  5688   0.315E-01    0.293E-02
DAV:   2    -0.924377682530E+02   -0.44483E-04   -0.53822E-04  7600   0.822E-02    0.230E-02
DAV:   3    -0.924377716718E+02   -0.34188E-05   -0.41690E-05  5656   0.259E-02
   9 F= -.95391294E+02 E0= -.95389917E+02  d E =-.236367E-03
       N       E                     dE             d eps       ncg     rms          rms(c)
DAV:   1    -0.924377517913E+02    0.16462E-04   -0.80983E-03  5592   0.247E-01    0.324E-02
DAV:   2    -0.924378088100E+02   -0.57019E-04   -0.45670E-04  7832   0.810E-02    0.513E-02
DAV:   3    -0.924377761972E+02    0.32613E-04   -0.14252E-04  5848   0.474E-02    0.239E-02
DAV:   4    -0.924377727069E+02    0.34903E-05   -0.13768E-05  4296   0.159E-02
  10 F= -.95391345E+02 E0= -.95389951E+02  d E =-.287360E-03
       N       E                     dE             d eps       ncg     rms          rms(c)
DAV:   1    -0.924378338076E+02   -0.57610E-04   -0.13895E-03  5680   0.104E-01    0.820E-03
DAV:   2    -0.924378416961E+02   -0.78885E-05   -0.77407E-05  6392   0.370E-02
  11 F= -.95391444E+02 E0= -.95390052E+02  d E =-.993254E-04
       N       E                     dE             d eps       ncg     rms          rms(c)
DAV:   1    -0.924379685587E+02   -0.13475E-03   -0.12556E-02  5592   0.309E-01    0.291E-02
DAV:   2    -0.924380223527E+02   -0.53794E-04   -0.56477E-04  7680   0.825E-02    0.242E-02
DAV:   3    -0.924380303828E+02   -0.80301E-05   -0.66405E-05  5384   0.350E-02
  12 F= -.95391724E+02 E0= -.95390347E+02  d E =-.378982E-03
       N       E                     dE             d eps       ncg     rms          rms(c)
DAV:   1    -0.924381008302E+02   -0.78478E-04   -0.49953E-02  5472   0.616E-01    0.566E-02
DAV:   2    -0.924382991877E+02   -0.19836E-03   -0.21274E-03  7320   0.162E-01    0.428E-02
DAV:   3    -0.924383166097E+02   -0.17422E-04   -0.15797E-04  6816   0.469E-02    0.403E-02
DAV:   4    -0.924383191844E+02   -0.25748E-05   -0.11390E-04  5296   0.324E-02    0.365E-02
DAV:   5    -0.924383127913E+02    0.63931E-05   -0.83655E-05  4784   0.452E-02
  13 F= -.95392189E+02 E0= -.95390785E+02  d E =-.844049E-03
       N       E                     dE             d eps       ncg     rms          rms(c)
DAV:   1    -0.924377182540E+02    0.60093E-03   -0.19895E-01  5480   0.124E+00    0.108E-01
DAV:   2    -0.924385377856E+02   -0.81953E-03   -0.86686E-03  7152   0.328E-01    0.869E-02
DAV:   3    -0.924386480354E+02   -0.11025E-03   -0.15467E-03  7736   0.188E-01    0.988E-02
DAV:   4    -0.924385324351E+02    0.11560E-03   -0.54269E-04  6616   0.941E-02    0.513E-02
DAV:   5    -0.924385741817E+02   -0.41747E-04   -0.26392E-04  5608   0.741E-02    0.463E-02
DAV:   6    -0.924385239703E+02    0.50211E-04   -0.21407E-04  5744   0.701E-02    0.106E-02
DAV:   7    -0.924385250149E+02   -0.10446E-05   -0.19080E-05  4760   0.201E-02
  14 F= -.95392769E+02 E0= -.95391379E+02  d E =-.142449E-02
       N       E                     dE             d eps       ncg     rms          rms(c)
DAV:   1    -0.924344005936E+02    0.41234E-02   -0.79678E-01  5488   0.247E+00    0.215E-01
DAV:   2    -0.924376382593E+02   -0.32377E-02   -0.34385E-02  7160   0.638E-01    0.171E-01
DAV:   3    -0.924381432435E+02   -0.50498E-03   -0.48395E-03  8312   0.289E-01    0.202E-01
DAV:   4    -0.924376767598E+02    0.46648E-03   -0.22055E-03  7136   0.182E-01    0.978E-02
DAV:   5    -0.924377265662E+02   -0.49806E-04   -0.47403E-04  6176   0.109E-01    0.525E-02
DAV:   6    -0.924376538318E+02    0.72734E-04   -0.58300E-04  6520   0.126E-01    0.270E-02
DAV:   7    -0.924376444765E+02    0.93553E-05   -0.94160E-05  5936   0.456E-02
  15 F= -.95392637E+02 E0= -.95391253E+02  d E =-.129197E-02
       N       E                     dE             d eps       ncg     rms          rms(c)
DAV:   1    -0.924371688148E+02    0.48502E-03   -0.30709E-01  5488   0.153E+00    0.134E-01
DAV:   2    -0.924384096641E+02   -0.12408E-02   -0.13021E-02  7184   0.401E-01    0.109E-01
DAV:   3    -0.924386173016E+02   -0.20764E-03   -0.20979E-03  7992   0.203E-01    0.130E-01
DAV:   4    -0.924384079839E+02    0.20932E-03   -0.84971E-04  6616   0.115E-01    0.554E-02
DAV:   5    -0.924384209711E+02   -0.12987E-04   -0.14962E-04  6064   0.630E-02    0.283E-02
DAV:   6    -0.924384031057E+02    0.17865E-04   -0.18515E-04  5944   0.716E-02    0.159E-02
DAV:   7    -0.924383994093E+02    0.36964E-05   -0.32322E-05  4456   0.290E-02
  16 F= -.95392925E+02 E0= -.95391533E+02  d E =-.158026E-02
       N       E                     dE             d eps       ncg     rms          rms(c)
DAV:   1    -0.924382802869E+02    0.12282E-03   -0.92807E-03  5488   0.268E-01    0.222E-02
DAV:   2    -0.924383201714E+02   -0.39884E-04   -0.40727E-04  7448   0.733E-02    0.208E-02
DAV:   3    -0.924383237346E+02   -0.35633E-05   -0.57173E-05  5120   0.332E-02
  17 F= -.95392931E+02 E0= -.95391554E+02  d E =-.158567E-02
       N       E                     dE             d eps       ncg     rms          rms(c)
DAV:   1    -0.924383553178E+02   -0.35146E-04   -0.30858E-03  5512   0.156E-01    0.142E-02
DAV:   2    -0.924383733495E+02   -0.18032E-04   -0.16415E-04  7120   0.472E-02    0.191E-02
DAV:   3    -0.924383702039E+02    0.31455E-05   -0.38601E-05  4704   0.271E-02
  18 F= -.95392930E+02 E0= -.95391532E+02  d E =-.158536E-02
       N       E                     dE             d eps       ncg     rms          rms(c)
DAV:   1    -0.924383331941E+02    0.40155E-04   -0.11646E-03  5512   0.969E-02    0.765E-03
DAV:   2    -0.924383387368E+02   -0.55427E-05   -0.57512E-05  5792   0.288E-02
  19 F= -.95392928E+02 E0= -.95391533E+02  d E =-.158283E-02
       N       E                     dE             d eps       ncg     rms          rms(c)
DAV:   1    -0.924383576584E+02   -0.24464E-04   -0.53707E-04  5528   0.657E-02    0.815E-03
DAV:   2    -0.924383675065E+02   -0.98481E-05   -0.51559E-05  5144   0.293E-02
  20 F= -.95392937E+02 E0= -.95391530E+02  d E =-.159176E-02
       N       E                     dE             d eps       ncg     rms          rms(c)
DAV:   1    -0.924383484488E+02    0.92096E-05   -0.15027E-04  6528   0.410E-02    0.361E-03
DAV:   2    -0.924383498373E+02   -0.13885E-05   -0.10275E-05  3200   0.163E-02
  21 F= -.95392929E+02 E0= -.95391533E+02  d E =-.158401E-02
       N       E                     dE             d eps       ncg     rms          rms(c)
DAV:   1    -0.924383563480E+02   -0.78992E-05   -0.63993E-05  4848   0.253E-02    0.341E-03
DAV:   2    -0.924383572763E+02   -0.92831E-06   -0.60987E-06  3072   0.122E-02
  22 F= -.95392929E+02 E0= -.95391534E+02  d E =-.158427E-02
       N       E                     dE             d eps       ncg     rms          rms(c)
DAV:   1    -0.924383530250E+02    0.33230E-05   -0.16233E-05  3816   0.140E-02    0.271E-03
DAV:   2    -0.924383538893E+02   -0.86427E-06   -0.40841E-06  2928   0.102E-02
  23 F= -.95392929E+02 E0= -.95391534E+02  d E =-.158447E-02
       N       E                     dE             d eps       ncg     rms          rms(c)
DAV:   1    -0.924383553440E+02   -0.23190E-05   -0.64753E-06  3024   0.999E-03    0.130E-03
DAV:   2    -0.924383555092E+02   -0.16525E-06   -0.12323E-06  2880   0.601E-03
  24 F= -.95392929E+02 E0= -.95391537E+02  d E =-.158381E-02
       N       E                     dE             d eps       ncg     rms          rms(c)
DAV:   1    -0.924383222637E+02    0.33080E-04   -0.80852E-03  5640   0.252E-01    0.182E-02
DAV:   2    -0.924383524215E+02   -0.30158E-04   -0.31053E-04  7216   0.607E-02    0.211E-02
DAV:   3    -0.924383519420E+02    0.47952E-06   -0.40474E-05  4888   0.239E-02
  25 F= -.95393019E+02 E0= -.95391636E+02  d E =-.900334E-04
       N       E                     dE             d eps       ncg     rms          rms(c)
DAV:   1    -0.924382490971E+02    0.10332E-03   -0.12224E-02  5624   0.310E-01    0.243E-02
DAV:   2    -0.924382908604E+02   -0.41763E-04   -0.47360E-04  7656   0.791E-02    0.211E-02
DAV:   3    -0.924382922765E+02   -0.14161E-05   -0.34165E-05  5048   0.265E-02
  26 F= -.95393074E+02 E0= -.95391684E+02  d E =-.144721E-03
       N       E                     dE             d eps       ncg     rms          rms(c)
DAV:   1    -0.924382962106E+02   -0.53503E-05   -0.32678E-03  5712   0.165E-01    0.173E-02
DAV:   2    -0.924383286695E+02   -0.32459E-04   -0.20110E-04  7512   0.536E-02    0.395E-02
DAV:   3    -0.924383075534E+02    0.21116E-04   -0.65137E-05  4760   0.311E-02    0.948E-03
DAV:   4    -0.924383080738E+02   -0.52041E-06   -0.71158E-06  3256   0.141E-02
  27 F= -.95393155E+02 E0= -.95391765E+02  d E =-.816586E-04
       N       E                     dE             d eps       ncg     rms          rms(c)
DAV:   1    -0.924382304137E+02    0.77140E-04   -0.28911E-02  5656   0.488E-01    0.291E-02
DAV:   2    -0.924383394919E+02   -0.10908E-03   -0.11347E-03  7096   0.118E-01    0.335E-02
DAV:   3    -0.924383389215E+02    0.57034E-06   -0.11517E-04  6240   0.414E-02    0.254E-02
DAV:   4    -0.924383349346E+02    0.39869E-05   -0.31001E-05  4568   0.205E-02
  28 F= -.95393380E+02 E0= -.95391989E+02  d E =-.306263E-03
       N       E                     dE             d eps       ncg     rms          rms(c)
DAV:   1    -0.924378498248E+02    0.48910E-03   -0.11569E-01  5736   0.981E-01    0.597E-02
DAV:   2    -0.924383026395E+02   -0.45281E-03   -0.45893E-03  7176   0.242E-01    0.720E-02
DAV:   3    -0.924382803123E+02    0.22327E-04   -0.68288E-04  7840   0.115E-01    0.539E-02
DAV:   4    -0.924382550840E+02    0.25228E-04   -0.10710E-04  5504   0.410E-02    0.278E-02
DAV:   5    -0.924382703637E+02   -0.15280E-04   -0.69605E-05  4920   0.399E-02    0.244E-02
DAV:   6    -0.924382558247E+02    0.14539E-04   -0.65774E-05  4480   0.419E-02    0.619E-03
DAV:   7    -0.924382564102E+02   -0.58557E-06   -0.61874E-06  3336   0.150E-02
  29 F= -.95393697E+02 E0= -.95392328E+02  d E =-.623880E-03
       N       E                     dE             d eps       ncg     rms          rms(c)
DAV:   1    -0.924359799730E+02    0.22759E-02   -0.46225E-01  5712   0.195E+00    0.117E-01
DAV:   2    -0.924376724038E+02   -0.16924E-02   -0.17652E-02  6984   0.446E-01    0.122E-01
DAV:   3    -0.924377533043E+02   -0.80900E-04   -0.19635E-03  7976   0.160E-01    0.115E-01
DAV:   4    -0.924376060090E+02    0.14730E-03   -0.58124E-04  6408   0.955E-02    0.477E-02
DAV:   5    -0.924376378094E+02   -0.31800E-04   -0.27537E-04  6184   0.808E-02    0.391E-02
DAV:   6    -0.924376026083E+02    0.35201E-04   -0.19299E-04  5264   0.667E-02    0.137E-02
DAV:   7    -0.924376037876E+02   -0.11793E-05   -0.17709E-05  4312   0.191E-02
  30 F= -.95393840E+02 E0= -.95392500E+02  d E =-.766092E-03
       N       E                     dE             d eps       ncg     rms          rms(c)
DAV:   1    -0.924377153429E+02   -0.11273E-03   -0.52690E-02  5704   0.659E-01    0.391E-02
DAV:   2    -0.924379119835E+02   -0.19664E-03   -0.20159E-03  7136   0.156E-01    0.423E-02
DAV:   3    -0.924379178694E+02   -0.58859E-05   -0.22676E-04  6816   0.549E-02    0.376E-02
DAV:   4    -0.924379023082E+02    0.15561E-04   -0.60940E-05  4880   0.336E-02    0.157E-02
DAV:   5    -0.924379070933E+02   -0.47851E-05   -0.30610E-05  4088   0.297E-02
  31 F= -.95393874E+02 E0= -.95392520E+02  d E =-.800267E-03
       N       E                     dE             d eps       ncg     rms          rms(c)
DAV:   1    -0.924378929292E+02    0.93790E-05   -0.12118E-03  6200   0.108E-01    0.708E-03
DAV:   2    -0.924378987638E+02   -0.58345E-05   -0.56466E-05  5808   0.297E-02
  32 F= -.95393906E+02 E0= -.95392552E+02  d E =-.317755E-04
       N       E                     dE             d eps       ncg     rms          rms(c)
DAV:   1    -0.924378417177E+02    0.51212E-04   -0.10893E-02  5720   0.302E-01    0.198E-02
DAV:   2    -0.924379055506E+02   -0.63833E-04   -0.50946E-04  7432   0.876E-02    0.430E-02
DAV:   3    -0.924378810584E+02    0.24492E-04   -0.10623E-04  5464   0.430E-02    0.110E-02
DAV:   4    -0.924378809404E+02    0.11802E-06   -0.74096E-06  3416   0.139E-02
  33 F= -.95394008E+02 E0= -.95392661E+02  d E =-.134340E-03
       N       E                     dE             d eps       ncg     rms          rms(c)
DAV:   1    -0.924376740687E+02    0.20699E-03   -0.43232E-02  5672   0.600E-01    0.335E-02
DAV:   2    -0.924378380479E+02   -0.16398E-03   -0.16842E-03  7064   0.145E-01    0.359E-02
DAV:   3    -0.924378421809E+02   -0.41331E-05   -0.21379E-04  6472   0.628E-02    0.322E-02
DAV:   4    -0.924378306861E+02    0.11495E-04   -0.45003E-05  4768   0.294E-02    0.139E-02
DAV:   5    -0.924378337891E+02   -0.31030E-05   -0.12619E-05  3768   0.181E-02
  34 F= -.95394202E+02 E0= -.95392861E+02  d E =-.328226E-03
       N       E                     dE             d eps       ncg     rms          rms(c)
DAV:   1    -0.924370587574E+02    0.77193E-03   -0.17270E-01  5680   0.120E+00    0.676E-02
DAV:   2    -0.924377065373E+02   -0.64778E-03   -0.66517E-03  7168   0.277E-01    0.757E-02
DAV:   3    -0.924377232139E+02   -0.16677E-04   -0.71479E-04  7496   0.968E-02    0.644E-02
DAV:   4    -0.924376789269E+02    0.44287E-04   -0.18509E-04  5432   0.566E-02    0.272E-02
DAV:   5    -0.924376920520E+02   -0.13125E-04   -0.94935E-05  4736   0.492E-02    0.227E-02
DAV:   6    -0.924376794159E+02    0.12636E-04   -0.63989E-05  4376   0.414E-02    0.719E-03
DAV:   7    -0.924376807221E+02   -0.13062E-05   -0.75361E-06  3304   0.126E-02
  35 F= -.95394532E+02 E0= -.95393203E+02  d E =-.658174E-03
       N       E                     dE             d eps       ncg     rms          rms(c)
DAV:   1    -0.924346775182E+02    0.30019E-02   -0.69045E-01  5704   0.239E+00    0.137E-01
DAV:   2    -0.924372650219E+02   -0.25875E-02   -0.26519E-02  6960   0.546E-01    0.150E-01
DAV:   3    -0.924373458929E+02   -0.80871E-04   -0.28389E-03  8136   0.185E-01    0.131E-01
DAV:   4    -0.924371602624E+02    0.18563E-03   -0.79149E-04  6320   0.112E-01    0.524E-02
DAV:   5    -0.924372093621E+02   -0.49100E-04   -0.44661E-04  6232   0.103E-01    0.471E-02
DAV:   6    -0.924371542772E+02    0.55085E-04   -0.24679E-04  5600   0.732E-02    0.144E-02
DAV:   7    -0.924371587353E+02   -0.44581E-05   -0.26467E-05  5296   0.186E-02
  36 F= -.95394980E+02 E0= -.95393675E+02  d E =-.110596E-02
       N       E                     dE             d eps       ncg     rms          rms(c)
DAV:   1    -0.924251656331E+02    0.11989E-01   -0.27627E+00  5720   0.480E+00    0.275E-01
DAV:   2    -0.924356070453E+02   -0.10441E-01   -0.10731E-01  6784   0.109E+00    0.296E-01
DAV:   3    -0.924360081324E+02   -0.40109E-03   -0.11532E-02  8288   0.377E-01    0.265E-01
DAV:   4    -0.924352368422E+02    0.77129E-03   -0.32741E-03  7280   0.223E-01    0.105E-01
DAV:   5    -0.924354316395E+02   -0.19480E-03   -0.18179E-03  7152   0.209E-01    0.946E-02
DAV:   6    -0.924352089441E+02    0.22270E-03   -0.97838E-04  6096   0.144E-01    0.291E-02
DAV:   7    -0.924352235157E+02   -0.14572E-04   -0.10891E-04  6816   0.347E-02    0.136E-02
DAV:   8    -0.924352224409E+02    0.10748E-05   -0.96421E-06  4184   0.146E-02
  37 F= -.95394998E+02 E0= -.95393747E+02  d E =-.112434E-02
       N       E                     dE             d eps       ncg     rms          rms(c)
DAV:   1    -0.924332823862E+02    0.19411E-02   -0.90884E-01  5704   0.275E+00    0.157E-01
DAV:   2    -0.924366698678E+02   -0.33875E-02   -0.34435E-02  6904   0.629E-01    0.178E-01
DAV:   3    -0.924367422589E+02   -0.72391E-04   -0.40020E-03  8360   0.235E-01    0.148E-01
DAV:   4    -0.924364941307E+02    0.24813E-03   -0.10153E-03  6640   0.129E-01    0.583E-02
DAV:   5    -0.924365556602E+02   -0.61530E-04   -0.54348E-04  6512   0.113E-01    0.529E-02
DAV:   6    -0.924364851251E+02    0.70535E-04   -0.31511E-04  5680   0.916E-02    0.152E-02
DAV:   7    -0.924364891911E+02   -0.40659E-05   -0.33799E-05  5584   0.246E-02
  38 F= -.95395141E+02 E0= -.95393859E+02  d E =-.126685E-02
       N       E                     dE             d eps       ncg     rms          rms(c)
DAV:   1    -0.924367620808E+02   -0.27696E-03   -0.69459E-03  5704   0.223E-01    0.234E-02
DAV:   2    -0.924367823459E+02   -0.20265E-04   -0.27264E-04  7848   0.577E-02    0.179E-02
DAV:   3    -0.924367868005E+02   -0.44546E-05   -0.42160E-05  5296   0.300E-02
  39 F= -.95395360E+02 E0= -.95394054E+02  d E =-.219563E-03
       N       E                     dE             d eps       ncg     rms          rms(c)
DAV:   1    -0.924369357987E+02   -0.15345E-03   -0.10453E-02  5712   0.277E-01    0.328E-02
DAV:   2    -0.924369645385E+02   -0.28740E-04   -0.41517E-04  7744   0.708E-02    0.247E-02
DAV:   3    -0.924369690543E+02   -0.45157E-05   -0.46937E-05  5952   0.238E-02
  40 F= -.95395446E+02 E0= -.95394159E+02  d E =-.305751E-03
       N       E                     dE             d eps       ncg     rms          rms(c)
DAV:   1    -0.924371617230E+02   -0.19718E-03   -0.44808E-03  5928   0.192E-01    0.243E-02
DAV:   2    -0.924372278398E+02   -0.66117E-04   -0.36643E-04  7688   0.780E-02    0.587E-02
DAV:   3    -0.924371752126E+02    0.52627E-04   -0.15790E-04  5808   0.514E-02    0.131E-02
DAV:   4    -0.924371754324E+02   -0.21984E-06   -0.91278E-06  3944   0.140E-02
  41 F= -.95395607E+02 E0= -.95394306E+02  d E =-.160781E-03
       N       E                     dE             d eps       ncg     rms          rms(c)
DAV:   1    -0.924376133513E+02   -0.43814E-03   -0.39580E-02  5744   0.564E-01    0.447E-02
DAV:   2    -0.924377686237E+02   -0.15527E-03   -0.15897E-03  7232   0.142E-01    0.423E-02
DAV:   3    -0.924377822907E+02   -0.13667E-04   -0.21394E-04  6520   0.595E-02    0.421E-02
DAV:   4    -0.924377646647E+02    0.17626E-04   -0.77961E-05  5128   0.375E-02    0.189E-02
DAV:   5    -0.924377636927E+02    0.97200E-06   -0.97482E-06  3472   0.152E-02
  42 F= -.95396059E+02 E0= -.95394758E+02  d E =-.612907E-03
       N       E                     dE             d eps       ncg     rms          rms(c)
DAV:   1    -0.924380731498E+02   -0.30849E-03   -0.15838E-01  5776   0.113E+00    0.890E-02
DAV:   2    -0.924386823884E+02   -0.60924E-03   -0.62939E-03  7152   0.286E-01    0.808E-02
DAV:   3    -0.924387509264E+02   -0.68538E-04   -0.88345E-04  7872   0.127E-01    0.845E-02
DAV:   4    -0.924386747265E+02    0.76200E-04   -0.33178E-04  5920   0.692E-02    0.377E-02
DAV:   5    -0.924386733466E+02    0.13799E-05   -0.44918E-05  5392   0.289E-02
  43 F= -.95396700E+02 E0= -.95395402E+02  d E =-.125314E-02
       N       E                     dE             d eps       ncg     rms          rms(c)
DAV:   1    -0.924370479429E+02    0.16268E-02   -0.63321E-01  5760   0.226E+00    0.179E-01
DAV:   2    -0.924394969990E+02   -0.24491E-02   -0.25241E-02  7176   0.577E-01    0.162E-01
DAV:   3    -0.924397598612E+02   -0.26286E-03   -0.38392E-03  8232   0.272E-01    0.169E-01
DAV:   4    -0.924394475041E+02    0.31236E-03   -0.13196E-03  6744   0.143E-01    0.760E-02
DAV:   5    -0.924394792520E+02   -0.31748E-04   -0.30429E-04  6416   0.882E-02    0.394E-02
DAV:   6    -0.924394391653E+02    0.40087E-04   -0.34509E-04  6552   0.965E-02    0.200E-02
DAV:   7    -0.924394322557E+02    0.69095E-05   -0.60171E-05  5136   0.391E-02
  44 F= -.95396931E+02 E0= -.95395635E+02  d E =-.148484E-02
       N       E                     dE             d eps       ncg     rms          rms(c)
DAV:   1    -0.924389683244E+02    0.47084E-03   -0.90426E-02  5752   0.852E-01    0.648E-02
DAV:   2    -0.924393207244E+02   -0.35240E-03   -0.35833E-03  7144   0.215E-01    0.620E-02
DAV:   3    -0.924393498138E+02   -0.29089E-04   -0.48380E-04  7624   0.908E-02    0.615E-02
DAV:   4    -0.924393099906E+02    0.39823E-04   -0.16872E-04  5784   0.499E-02    0.258E-02
DAV:   5    -0.924393108405E+02   -0.84985E-06   -0.32454E-05  4712   0.277E-02
  45 F= -.95397008E+02 E0= -.95395711E+02  d E =-.156138E-02
       N       E                     dE             d eps       ncg     rms          rms(c)
DAV:   1    -0.924393347220E+02   -0.24731E-04   -0.31030E-03  5976   0.163E-01    0.119E-02
DAV:   2    -0.924393498875E+02   -0.15165E-04   -0.15723E-04  6680   0.548E-02    0.101E-02
DAV:   3    -0.924393472445E+02    0.26430E-05   -0.40725E-05  3984   0.365E-02
  46 F= -.95397007E+02 E0= -.95395706E+02  d E =-.156097E-02
       N       E                     dE             d eps       ncg     rms          rms(c)
DAV:   1    -0.924393263149E+02    0.23573E-04   -0.72333E-04  5864   0.796E-02    0.859E-03
DAV:   2    -0.924393361639E+02   -0.98490E-05   -0.55337E-05  5464   0.277E-02
  47 F= -.95397014E+02 E0= -.95395702E+02  d E =-.156789E-02
       N       E                     dE             d eps       ncg     rms          rms(c)
DAV:   1    -0.924393378819E+02   -0.11567E-04   -0.23325E-04  6104   0.474E-02    0.351E-03
DAV:   2    -0.924393394238E+02   -0.15419E-05   -0.13296E-05  3392   0.192E-02
  48 F= -.95397008E+02 E0= -.95395707E+02  d E =-.156109E-02
       N       E                     dE             d eps       ncg     rms          rms(c)
DAV:   1    -0.924393337345E+02    0.41474E-05   -0.52609E-05  4736   0.256E-02    0.389E-03
DAV:   2    -0.924393355521E+02   -0.18176E-05   -0.86591E-06  3072   0.141E-02
  49 F= -.95397009E+02 E0= -.95395704E+02  d E =-.156224E-02
       N       E                     dE             d eps       ncg     rms          rms(c)
DAV:   1    -0.924393366938E+02   -0.29594E-05   -0.16182E-05  3544   0.154E-02    0.193E-03
DAV:   2    -0.924393370147E+02   -0.32092E-06   -0.22402E-06  2904   0.856E-03
  50 F= -.95397007E+02 E0= -.95395708E+02  d E =-.156092E-02
       N       E                     dE             d eps       ncg     rms          rms(c)
DAV:   1    -0.924393336480E+02    0.30458E-05   -0.14860E-02  5872   0.339E-01    0.304E-02
DAV:   2    -0.924393718557E+02   -0.38208E-04   -0.50091E-04  7176   0.780E-02    0.208E-02
DAV:   3    -0.924393715288E+02    0.32692E-06   -0.40300E-05  5840   0.317E-02
  51 F= -.95397037E+02 E0= -.95395727E+02  d E =-.294521E-04
       N       E                     dE             d eps       ncg     rms          rms(c)
DAV:   1    -0.924393803397E+02   -0.84840E-05   -0.25659E-03  5928   0.147E-01    0.154E-02
DAV:   2    -0.924393998138E+02   -0.19474E-04   -0.19447E-04  6384   0.666E-02    0.207E-02
DAV:   3    -0.924393855097E+02    0.14304E-04   -0.70983E-05  4536   0.453E-02    0.573E-03
DAV:   4    -0.924393855879E+02   -0.78242E-07   -0.60720E-06  3408   0.125E-02
  52 F= -.95397053E+02 E0= -.95395752E+02  d E =-.455933E-04
       N       E                     dE             d eps       ncg     rms          rms(c)
DAV:   1    -0.924394206782E+02   -0.35169E-04   -0.44006E-03  5736   0.193E-01    0.116E-02
DAV:   2    -0.924394412653E+02   -0.20587E-04   -0.17361E-04  7320   0.526E-02    0.214E-02
DAV:   3    -0.924394351688E+02    0.60966E-05   -0.29806E-05  4384   0.239E-02
  53 F= -.95397122E+02 E0= -.95395816E+02  d E =-.694292E-04
       N       E                     dE             d eps       ncg     rms          rms(c)
DAV:   1    -0.924394367986E+02    0.44667E-05   -0.40255E-02  5792   0.581E-01    0.333E-02
DAV:   2    -0.924395571753E+02   -0.12038E-03   -0.12744E-03  6968   0.128E-01    0.207E-02
DAV:   3    -0.924395636357E+02   -0.64604E-05   -0.66709E-05  6120   0.334E-02
  54 F= -.95397311E+02 E0= -.95395994E+02  d E =-.257700E-03
       N       E                     dE             d eps       ncg     rms          rms(c)
DAV:   1    -0.924392113331E+02    0.34584E-03   -0.16083E-01  5792   0.116E+00    0.694E-02
DAV:   2    -0.924397382544E+02   -0.52692E-03   -0.52728E-03  7008   0.260E-01    0.712E-02
DAV:   3    -0.924397486935E+02   -0.10439E-04   -0.66806E-04  7904   0.104E-01    0.649E-02
DAV:   4    -0.924397016763E+02    0.47017E-04   -0.16785E-04  5616   0.510E-02    0.213E-02
DAV:   5    -0.924397053435E+02   -0.36672E-05   -0.29631E-05  5088   0.284E-02
  55 F= -.95397573E+02 E0= -.95396268E+02  d E =-.520080E-03
