       N       E                     dE             d eps       ncg     rms          rms(c)
DAV:   1     0.221489777388E+04    0.22149E+04   -0.92238E+04  5784   0.157E+03
DAV:   2     0.287027356851E+03   -0.19279E+04   -0.18714E+04  5672   0.451E+02
DAV:   3    -0.609175080017E+02   -0.34794E+03   -0.33862E+03  6568   0.198E+02
DAV:   4    -0.902927392262E+02   -0.29375E+02   -0.28903E+02  6736   0.554E+01
DAV:   5    -0.937250818978E+02   -0.34323E+01   -0.34032E+01  9416   0.123E+01    0.101E+02
RMM:   6    -0.865782745426E+02    0.71468E+01   -0.26339E+01  6279   0.757E+00    0.464E+01
RMM:   7    -0.108230531678E+03   -0.21652E+02   -0.14158E+01  6526   0.690E+00    0.307E+01
RMM:   8    -0.859582051440E+02    0.22272E+02   -0.57384E+00  6691   0.547E+00    0.998E+00
RMM:   9    -0.850891495305E+02    0.86906E+00   -0.13942E+00  7856   0.224E+00    0.629E+00
RMM:  10    -0.850392782121E+02    0.49871E-01   -0.38586E-01  9225   0.120E+00    0.328E+00
RMM:  11    -0.849962794476E+02    0.42999E-01   -0.21293E-01  9311   0.837E-01    0.475E-01
RMM:  12    -0.849999382813E+02   -0.36588E-02   -0.10342E-01  9232   0.525E-01    0.607E-01
RMM:  13    -0.850059794828E+02   -0.60412E-02   -0.69142E-02  9636   0.361E-01    0.397E-01
RMM:  14    -0.850077951484E+02   -0.18157E-02   -0.29587E-02  9424   0.275E-01    0.194E-01
RMM:  15    -0.850097639632E+02   -0.19688E-02   -0.20575E-02  9796   0.195E-01    0.103E-01
RMM:  16    -0.850107784815E+02   -0.10145E-02   -0.10995E-02  9743   0.150E-01    0.137E-01
RMM:  17    -0.850116439775E+02   -0.86550E-03   -0.75414E-03  9720   0.111E-01    0.545E-02
RMM:  18    -0.850123056406E+02   -0.66166E-03   -0.45601E-03  9565   0.873E-02    0.354E-02
RMM:  19    -0.850128222021E+02   -0.51656E-03   -0.30620E-03  9409   0.696E-02    0.168E-02
RMM:  20    -0.850133114423E+02   -0.48924E-03   -0.19595E-03  8885   0.544E-02    0.272E-02
RMM:  21    -0.850135917438E+02   -0.28030E-03   -0.13234E-03  8419   0.433E-02    0.210E-02
RMM:  22    -0.850138820157E+02   -0.29027E-03   -0.86927E-04  7661   0.349E-02    0.184E-02
RMM:  23    -0.850140051494E+02   -0.12313E-03   -0.62297E-04  6662   0.280E-02    0.162E-02
RMM:  24    -0.850140724875E+02   -0.67338E-04   -0.38347E-04  5693   0.226E-02    0.141E-02
RMM:  25    -0.850141032912E+02   -0.30804E-04   -0.27737E-04  4952   0.181E-02    0.160E-02
RMM:  26    -0.850141192453E+02   -0.15954E-04   -0.18036E-04  4523   0.144E-02    0.215E-02
RMM:  27    -0.850141371468E+02   -0.17902E-04   -0.12151E-04  4370   0.122E-02    0.120E-02
RMM:  28    -0.850141453113E+02   -0.81645E-05   -0.80579E-05  4041   0.984E-03
   1 F= -.88059585E+02 E0= -.88052859E+02  d E =-.880596E+02
       N       E                     dE             d eps       ncg     rms          rms(c)
DAV:   1     0.255031573204E+03    0.34005E+03   -0.27420E+03  7464   0.889E+01    0.564E+01
RMM:   2     0.222192395625E+03   -0.32839E+02   -0.39521E+02  7015   0.356E+01    0.409E+01
RMM:   3     0.203447537832E+03   -0.18745E+02   -0.73025E+01  6756   0.144E+01    0.419E+01
RMM:   4     0.209114639743E+03    0.56671E+01   -0.63240E+01  6989   0.103E+01    0.367E+01
RMM:   5     0.211764652931E+03    0.26500E+01   -0.20941E+01  7958   0.539E+00    0.327E+01
RMM:   6     0.206532303128E+03   -0.52323E+01   -0.97519E+00  7022   0.470E+00    0.301E+01
RMM:   7     0.206623630613E+03    0.91327E-01   -0.83002E+00  6952   0.449E+00    0.429E+01
RMM:   8     0.215936562030E+03    0.93129E+01   -0.52321E+00  7006   0.349E+00    0.179E+01
RMM:   9     0.216322092673E+03    0.38553E+00   -0.22581E+00  7699   0.207E+00    0.100E+01
RMM:  10     0.216234642407E+03   -0.87450E-01   -0.30812E+00  7744   0.229E+00    0.105E+01
RMM:  11     0.216742211437E+03    0.50757E+00   -0.68298E-01  7843   0.130E+00    0.690E+00
RMM:  12     0.217020092601E+03    0.27788E+00   -0.48266E-01  8622   0.865E-01    0.301E+00
RMM:  13     0.217013667516E+03   -0.64251E-02   -0.23901E-01  9290   0.603E-01    0.290E+00
RMM:  14     0.216920124232E+03   -0.93543E-01   -0.14800E-01  8540   0.480E-01    0.360E+00
RMM:  15     0.216868659256E+03   -0.51465E-01   -0.16545E-01  7776   0.603E-01    0.890E+00
RMM:  16     0.217034656324E+03    0.16600E+00   -0.81786E-02  8858   0.439E-01    0.641E+00
RMM:  17     0.217095826942E+03    0.61171E-01   -0.66194E-02  8653   0.363E-01    0.377E+00
RMM:  18     0.217086892728E+03   -0.89342E-02   -0.75673E-02  8176   0.342E-01    0.157E+00
RMM:  19     0.217062101995E+03   -0.24791E-01   -0.24247E-02  8339   0.226E-01    0.189E+00
RMM:  20     0.217064277945E+03    0.21759E-02   -0.11080E-02  8188   0.135E-01    0.207E+00
RMM:  21     0.217065766096E+03    0.14882E-02   -0.68688E-03  7045   0.831E-02    0.209E+00
RMM:  22     0.217074239143E+03    0.84730E-02   -0.81791E-03  7295   0.107E-01    0.100E+00
RMM:  23     0.217067411329E+03   -0.68278E-02   -0.98184E-03  8116   0.150E-01    0.730E-01
RMM:  24     0.217066073922E+03   -0.13374E-02   -0.51590E-03  7393   0.132E-01    0.806E-01
RMM:  25     0.217065986015E+03   -0.87907E-04   -0.28840E-03  6414   0.771E-02    0.730E-01
RMM:  26     0.217064780887E+03   -0.12051E-02   -0.17263E-03  5955   0.517E-02    0.784E-01
RMM:  27     0.217066687163E+03    0.19063E-02   -0.15158E-03  6447   0.597E-02    0.632E-01
RMM:  28     0.217066648085E+03   -0.39078E-04   -0.54014E-03  7671   0.109E-01    0.969E-01
RMM:  29     0.217069775799E+03    0.31277E-02   -0.28295E-03  6057   0.690E-02    0.657E-01
RMM:  30     0.217068649877E+03   -0.11259E-02   -0.72539E-04  5633   0.431E-02    0.773E-01
RMM:  31     0.217069980283E+03    0.13304E-02   -0.82364E-04  5826   0.384E-02    0.172E-01
RMM:  32     0.217068676529E+03   -0.13038E-02   -0.62402E-04  5645   0.431E-02    0.106E-01
RMM:  33     0.217068394861E+03   -0.28167E-03   -0.40735E-04  5404   0.267E-02    0.814E-02
RMM:  34     0.217068317315E+03   -0.77545E-04   -0.20775E-04  5001   0.148E-02    0.914E-02
RMM:  35     0.217068184701E+03   -0.13261E-03   -0.18283E-04  5165   0.157E-02    0.125E-01
RMM:  36     0.217068156399E+03   -0.28302E-04   -0.22414E-04  5315   0.185E-02    0.355E-02
RMM:  37     0.217068080758E+03   -0.75641E-04   -0.10565E-04  4588   0.134E-02    0.363E-02
RMM:  38     0.217068056768E+03   -0.23990E-04   -0.76301E-05  3332   0.765E-03    0.363E-02
RMM:  39     0.217068050936E+03   -0.58319E-05   -0.55198E-05  2543   0.605E-03
   2 F= 0.21396821E+03 E0= 0.21398123E+03  d E =0.302028E+03
       N       E                     dE             d eps       ncg     rms          rms(c)
DAV:   1    -0.545699582981E+02   -0.27164E+03   -0.24323E+03  6368   0.918E+01    0.652E+01
RMM:   2    -0.762866556422E+02   -0.21717E+02   -0.30704E+02  6585   0.287E+01    0.344E+01
RMM:   3    -0.969212641089E+02   -0.20635E+02   -0.82755E+01  6659   0.144E+01    0.282E+01
RMM:   4    -0.825544454595E+02    0.14367E+02   -0.25770E+01  6784   0.786E+00    0.235E+01
RMM:   5    -0.819193157841E+02    0.63513E+00   -0.12726E+01  7341   0.499E+00    0.786E+00
RMM:   6    -0.818221370921E+02    0.97179E-01   -0.44211E+00  7927   0.290E+00    0.768E+00
RMM:   7    -0.821703622319E+02   -0.34823E+00   -0.30555E+00  8260   0.201E+00    0.401E+00
RMM:   8    -0.824363558980E+02   -0.26599E+00   -0.28613E+00  8155   0.154E+00    0.255E+00
RMM:   9    -0.826760423124E+02   -0.23969E+00   -0.23673E+00  8323   0.112E+00    0.136E+00
RMM:  10    -0.829600881078E+02   -0.28405E+00   -0.23458E+00  8578   0.866E-01    0.107E+00
RMM:  11    -0.831759391094E+02   -0.21585E+00   -0.18468E+00  9234   0.695E-01    0.876E-01
RMM:  12    -0.834238238030E+02   -0.24788E+00   -0.21120E+00  8778   0.606E-01    0.768E-01
RMM:  13    -0.836369025039E+02   -0.21308E+00   -0.17254E+00  8056   0.537E-01    0.772E-01
RMM:  14    -0.837353188707E+02   -0.98416E-01   -0.86219E-01  7667   0.427E-01    0.816E-01
RMM:  15    -0.838169394207E+02   -0.81621E-01   -0.72616E-01  7809   0.396E-01    0.939E-01
RMM:  16    -0.839247606194E+02   -0.10782E+00   -0.89502E-01  8785   0.481E-01    0.113E+00
RMM:  17    -0.840430918842E+02   -0.11833E+00   -0.97012E-01  7474   0.395E-01    0.911E-01
RMM:  18    -0.841320755275E+02   -0.88984E-01   -0.66327E-01  7336   0.338E-01    0.555E-01
RMM:  19    -0.841732560449E+02   -0.41181E-01   -0.30297E-01  7383   0.247E-01    0.534E-01
RMM:  20    -0.841953709483E+02   -0.22115E-01   -0.19476E-01  5925   0.196E-01    0.564E-01
RMM:  21    -0.842137155647E+02   -0.18345E-01   -0.17551E-01  5554   0.167E-01    0.544E-01
RMM:  22    -0.842313317694E+02   -0.17616E-01   -0.17832E-01  7346   0.181E-01    0.416E-01
RMM:  23    -0.842500177141E+02   -0.18686E-01   -0.18272E-01  9697   0.223E-01    0.312E-01
RMM:  24    -0.842685560154E+02   -0.18538E-01   -0.17555E-01  6053   0.158E-01    0.310E-01
RMM:  25    -0.842862833353E+02   -0.17727E-01   -0.16663E-01  5334   0.133E-01    0.319E-01
RMM:  26    -0.843032353752E+02   -0.16952E-01   -0.15770E-01  5243   0.122E-01    0.334E-01
RMM:  27    -0.843193582894E+02   -0.16123E-01   -0.15102E-01  5396   0.118E-01    0.338E-01
RMM:  28    -0.843355170046E+02   -0.16159E-01   -0.15177E-01  6077   0.137E-01    0.332E-01
RMM:  29    -0.843532964775E+02   -0.17779E-01   -0.16297E-01  5330   0.117E-01    0.340E-01
RMM:  30    -0.843750626798E+02   -0.21766E-01   -0.19447E-01  5092   0.107E-01    0.356E-01
RMM:  31    -0.844031748055E+02   -0.28112E-01   -0.24550E-01  4714   0.104E-01    0.376E-01
RMM:  32    -0.844354014314E+02   -0.32227E-01   -0.28152E-01  4371   0.103E-01    0.398E-01
RMM:  33    -0.844650810344E+02   -0.29680E-01   -0.26392E-01  4125   0.102E-01    0.416E-01
RMM:  34    -0.844879382426E+02   -0.22857E-01   -0.20692E-01  3200   0.974E-02    0.432E-01
RMM:  35    -0.845053019999E+02   -0.17364E-01   -0.16026E-01  4018   0.925E-02    0.444E-01
RMM:  36    -0.845198156433E+02   -0.14514E-01   -0.13639E-01  4302   0.897E-02    0.452E-01
RMM:  37    -0.845335492231E+02   -0.13734E-01   -0.13004E-01  4133   0.862E-02    0.464E-01
RMM:  38    -0.845473767278E+02   -0.13828E-01   -0.13238E-01  4165   0.849E-02    0.468E-01
RMM:  39    -0.845618997478E+02   -0.14523E-01   -0.13833E-01  3739   0.821E-02    0.479E-01
RMM:  40    -0.845770646996E+02   -0.15165E-01   -0.14594E-01  4623   0.841E-02    0.472E-01
RMM:  41    -0.845929762889E+02   -0.15912E-01   -0.15497E-01  5429   0.916E-02    0.439E-01
RMM:  42    -0.846103364736E+02   -0.17360E-01   -0.16411E-01  5332   0.884E-02    0.436E-01
RMM:  43    -0.846287184464E+02   -0.18382E-01   -0.17219E-01  5030   0.833E-02    0.449E-01
RMM:  44    -0.846478626860E+02   -0.19144E-01   -0.17809E-01  4209   0.796E-02    0.467E-01
RMM:  45    -0.846673787374E+02   -0.19516E-01   -0.18046E-01  4184   0.788E-02    0.478E-01
RMM:  46    -0.846869344828E+02   -0.19556E-01   -0.17942E-01  4404   0.786E-02    0.489E-01
RMM:  47    -0.847065964404E+02   -0.19662E-01   -0.17756E-01  3898   0.769E-02    0.499E-01
RMM:  48    -0.847265968434E+02   -0.20000E-01   -0.17734E-01  3926   0.764E-02    0.511E-01
RMM:  49    -0.847480474044E+02   -0.21451E-01   -0.18748E-01  3483   0.731E-02    0.522E-01
RMM:  50    -0.847707949272E+02   -0.22748E-01   -0.20032E-01  2709   0.714E-02    0.530E-01
RMM:  51    -0.847934385825E+02   -0.22644E-01   -0.20393E-01  2631   0.695E-02    0.537E-01
RMM:  52    -0.848140919349E+02   -0.20653E-01   -0.18759E-01  3858   0.680E-02    0.541E-01
RMM:  53    -0.848319009664E+02   -0.17809E-01   -0.16133E-01  3229   0.631E-02    0.549E-01
RMM:  54    -0.848463394204E+02   -0.14438E-01   -0.13045E-01  2614   0.598E-02    0.556E-01
RMM:  55    -0.848577462688E+02   -0.11407E-01   -0.10375E-01  2320   0.561E-02    0.564E-01
RMM:  56    -0.848666798221E+02   -0.89336E-02   -0.81560E-02  2772   0.520E-02    0.572E-01
RMM:  57    -0.848793952988E+02   -0.12715E-01   -0.75165E-02  9904   0.227E-01    0.108E+00
RMM:  58    -0.848834540641E+02   -0.40588E-02   -0.52516E-02  7200   0.108E-01    0.101E+00
RMM:  59    -0.848866089796E+02   -0.31549E-02   -0.44686E-02  5684   0.761E-02    0.983E-01
RMM:  60    -0.848886902857E+02   -0.20813E-02   -0.36529E-02  6250   0.716E-02    0.960E-01
RMM:  61    -0.848904385060E+02   -0.17482E-02   -0.34718E-02  6856   0.779E-02    0.969E-01
RMM:  62    -0.848940788631E+02   -0.36404E-02   -0.48913E-02  9906   0.335E-01    0.977E-01
RMM:  63    -0.848968188091E+02   -0.27399E-02   -0.33162E-02  9483   0.180E-01    0.111E+00
RMM:  64    -0.848996091830E+02   -0.27904E-02   -0.32363E-02  8560   0.131E-01    0.120E+00
RMM:  65    -0.849027911550E+02   -0.31820E-02   -0.30085E-02  9250   0.116E-01    0.132E+00
RMM:  66    -0.849053432968E+02   -0.25521E-02   -0.28918E-02  5475   0.659E-02    0.129E+00
RMM:  67    -0.849076344363E+02   -0.22911E-02   -0.29885E-02  6643   0.748E-02    0.125E+00
RMM:  68    -0.849126062761E+02   -0.49718E-02   -0.33931E-02  9427   0.132E-01    0.132E+00
RMM:  69    -0.849224354280E+02   -0.98292E-02   -0.38110E-02  9854   0.163E-01    0.158E+00
RMM:  70    -0.849265189403E+02   -0.40835E-02   -0.34050E-02  6684   0.855E-02    0.162E+00
RMM:  71    -0.849303213169E+02   -0.38024E-02   -0.34760E-02  5461   0.595E-02    0.163E+00
RMM:  72    -0.849272765977E+02    0.30447E-02   -0.42495E-02  9715   0.179E-01    0.124E+00
RMM:  73    -0.849327478586E+02   -0.54713E-02   -0.39720E-02  6771   0.982E-02    0.127E+00
RMM:  74    -0.849373048054E+02   -0.45569E-02   -0.38226E-02  5518   0.671E-02    0.129E+00
RMM:  75    -0.849408380016E+02   -0.35332E-02   -0.37656E-02  5389   0.534E-02    0.128E+00
RMM:  76    -0.849455038323E+02   -0.46658E-02   -0.41072E-02  6834   0.777E-02    0.125E+00
RMM:  77    -0.849403073898E+02    0.51964E-02   -0.49674E-02  9834   0.201E-01    0.746E-01
RMM:  78    -0.849445952919E+02   -0.42879E-02   -0.43169E-02  6753   0.979E-02    0.844E-01
RMM:  79    -0.849488802387E+02   -0.42849E-02   -0.42443E-02  6530   0.765E-02    0.747E-01
RMM:  80    -0.849531575658E+02   -0.42773E-02   -0.43835E-02  6456   0.618E-02    0.660E-01
RMM:  81    -0.849573921972E+02   -0.42346E-02   -0.44367E-02  5678   0.550E-02    0.600E-01
RMM:  82    -0.849653637250E+02   -0.79715E-02   -0.61605E-02  9753   0.202E-01    0.557E-01
RMM:  83    -0.849699391098E+02   -0.45754E-02   -0.48358E-02  6887   0.992E-02    0.604E-01
RMM:  84    -0.849735073637E+02   -0.35683E-02   -0.47722E-02  5523   0.626E-02    0.575E-01
RMM:  85    -0.849771060332E+02   -0.35987E-02   -0.48177E-02  5442   0.569E-02    0.479E-01
RMM:  86    -0.849816142236E+02   -0.45082E-02   -0.48942E-02  5386   0.458E-02    0.400E-01
RMM:  87    -0.849855688173E+02   -0.39546E-02   -0.49744E-02  6467   0.632E-02    0.265E-01
RMM:  88    -0.849899924120E+02   -0.44236E-02   -0.49879E-02  5489   0.539E-02    0.190E-01
RMM:  89    -0.849951190258E+02   -0.51266E-02   -0.48739E-02  5367   0.448E-02    0.179E-01
RMM:  90    -0.850000297533E+02   -0.49107E-02   -0.48377E-02  5291   0.394E-02    0.160E-01
RMM:  91    -0.850048305057E+02   -0.48008E-02   -0.47551E-02  5350   0.373E-02    0.141E-01
RMM:  92    -0.850096805622E+02   -0.48501E-02   -0.46109E-02  5396   0.468E-02    0.133E-01
RMM:  93    -0.850142275579E+02   -0.45470E-02   -0.45171E-02  5304   0.414E-02    0.120E-01
RMM:  94    -0.850186674418E+02   -0.44399E-02   -0.42983E-02  4977   0.334E-02    0.121E-01
RMM:  95    -0.850229589026E+02   -0.42915E-02   -0.41335E-02  4563   0.323E-02    0.115E-01
RMM:  96    -0.850270129508E+02   -0.40540E-02   -0.38865E-02  4281   0.286E-02    0.110E-01
RMM:  97    -0.850306854306E+02   -0.36725E-02   -0.38882E-02  6427   0.683E-02    0.171E-01
RMM:  98    -0.850342039237E+02   -0.35185E-02   -0.34228E-02  5580   0.518E-02    0.109E-01
RMM:  99    -0.850375570788E+02   -0.33532E-02   -0.32092E-02  5340   0.386E-02    0.871E-02
RMM: 100    -0.850406025467E+02   -0.30455E-02   -0.29053E-02  4884   0.308E-02
   3 F= -.88086452E+02 E0= -.88080391E+02  d E =-.268668E-01
       N       E                     dE             d eps       ncg     rms          rms(c)
DAV:   1    -0.855495364328E+02   -0.51198E+00   -0.18011E+00  6040   0.143E+00    0.190E+00
RMM:   2    -0.856054542583E+02   -0.55918E-01   -0.33770E-01  6111   0.409E-01    0.114E+00
RMM:   3    -0.856385674645E+02   -0.33113E-01   -0.30027E-01  6640   0.244E-01    0.231E-01
RMM:   4    -0.856466733445E+02   -0.81059E-02   -0.66277E-02  6657   0.142E-01    0.336E-01
RMM:   5    -0.856460120660E+02    0.66128E-03   -0.21897E-02  6704   0.832E-02    0.145E-01
RMM:   6    -0.856471867342E+02   -0.11747E-02   -0.12906E-02  5794   0.526E-02    0.675E-02
RMM:   7    -0.856477150553E+02   -0.52832E-03   -0.57047E-03  5341   0.342E-02    0.433E-02
RMM:   8    -0.856480509093E+02   -0.33585E-03   -0.35300E-03  5143   0.246E-02    0.418E-02
RMM:   9    -0.856482207678E+02   -0.16986E-03   -0.18275E-03  4525   0.167E-02    0.162E-02
RMM:  10    -0.856483313297E+02   -0.11056E-03   -0.11549E-03  4290   0.130E-02    0.706E-03
RMM:  11    -0.856483988621E+02   -0.67532E-04   -0.70406E-04  3790   0.967E-03    0.569E-03
RMM:  12    -0.856484434293E+02   -0.44567E-04   -0.45284E-04  3122   0.806E-03    0.252E-03
RMM:  13    -0.856484737778E+02   -0.30348E-04   -0.30555E-04  2553   0.700E-03    0.699E-04
RMM:  14    -0.856484945506E+02   -0.20773E-04   -0.20373E-04  2443   0.606E-03    0.122E-03
RMM:  15    -0.856485082147E+02   -0.13664E-04   -0.14285E-04  2024   0.561E-03    0.972E-04
RMM:  16    -0.856485180256E+02   -0.98109E-05   -0.10107E-04  1984   0.526E-03    0.726E-04
RMM:  17    -0.856485246022E+02   -0.65766E-05   -0.72339E-05  1816   0.499E-03
   4 F= -.88694736E+02 E0= -.88687788E+02  d E =-.635151E+00
       N       E                     dE             d eps       ncg     rms          rms(c)
DAV:   1    -0.867136601300E+02   -0.10651E+01   -0.44907E+01  5888   0.114E+01    0.153E+01
RMM:   2    -0.868465172733E+02   -0.13286E+00   -0.22663E+00  6560   0.291E+00    0.950E+00
RMM:   3    -0.871941246306E+02   -0.34761E+00   -0.82804E-01  6838   0.151E+00    0.294E+00
RMM:   4    -0.869786315951E+02    0.21549E+00   -0.19216E-01  6565   0.935E-01    0.256E+00
RMM:   5    -0.868763976688E+02    0.10223E+00   -0.61365E-02  6875   0.510E-01    0.104E+00
RMM:   6    -0.868748804762E+02    0.15172E-02   -0.27859E-02  7499   0.283E-01    0.526E-01
RMM:   7    -0.868745344144E+02    0.34606E-03   -0.68336E-03  7160   0.156E-01    0.213E-01
RMM:   8    -0.868750953625E+02   -0.56095E-03   -0.49191E-03  7653   0.107E-01    0.232E-01
RMM:   9    -0.868751354186E+02   -0.40056E-04   -0.21995E-03  7008   0.769E-02    0.367E-02
RMM:  10    -0.868753033388E+02   -0.16792E-03   -0.13318E-03  7004   0.535E-02    0.544E-02
RMM:  11    -0.868754072144E+02   -0.10388E-03   -0.64124E-04  6241   0.354E-02    0.340E-02
RMM:  12    -0.868754642567E+02   -0.57042E-04   -0.40345E-04  5744   0.255E-02    0.146E-02
RMM:  13    -0.868755029586E+02   -0.38702E-04   -0.26182E-04  5240   0.193E-02    0.143E-02
RMM:  14    -0.868754905162E+02    0.12442E-04   -0.16836E-04  4654   0.152E-02    0.302E-02
RMM:  15    -0.868755638706E+02   -0.73354E-04   -0.12738E-04  4920   0.143E-02    0.483E-03
RMM:  16    -0.868755781026E+02   -0.14232E-04   -0.83003E-05  3849   0.982E-03    0.365E-03
RMM:  17    -0.868755825218E+02   -0.44192E-05   -0.38222E-05  3278   0.787E-03
   5 F= -.89924857E+02 E0= -.89917642E+02  d E =-.186527E+01
       N       E                     dE             d eps       ncg     rms          rms(c)
DAV:   1    -0.599513840954E+02    0.26924E+02   -0.89750E+02  5792   0.574E+01    0.331E+01
RMM:   2    -0.694360147266E+02   -0.94846E+01   -0.88550E+01  6329   0.173E+01    0.280E+01
RMM:   3    -0.784926325939E+02   -0.90566E+01   -0.46420E+01  6663   0.946E+00    0.258E+01
RMM:   4    -0.719146633767E+02    0.65780E+01   -0.55252E+00  6698   0.443E+00    0.189E+01
RMM:   5    -0.710348035424E+02    0.87986E+00   -0.94041E+00  6841   0.392E+00    0.113E+01
RMM:   6    -0.744019489434E+02   -0.33671E+01   -0.23404E+00  6908   0.237E+00    0.160E+01
RMM:   7    -0.687456013553E+02    0.56563E+01   -0.15935E+00  7444   0.178E+00    0.247E+00
RMM:   8    -0.688589519939E+02   -0.11335E+00   -0.35238E-01  8670   0.845E-01    0.288E+00
RMM:   9    -0.689488574333E+02   -0.89905E-01   -0.14221E-01  8989   0.495E-01    0.371E+00
RMM:  10    -0.687473907702E+02    0.20147E+00   -0.16810E-01  7366   0.606E-01    0.877E-01
RMM:  11    -0.687524121721E+02   -0.50214E-02   -0.73758E-02  8005   0.366E-01    0.613E-01
RMM:  12    -0.687526730511E+02   -0.26088E-03   -0.28250E-02  8811   0.201E-01    0.517E-01
RMM:  13    -0.687669737437E+02   -0.14301E-01   -0.26308E-02  8109   0.184E-01    0.163E+00
RMM:  14    -0.687514643175E+02    0.15509E-01   -0.24885E-02  7714   0.237E-01    0.206E-01
RMM:  15    -0.687553289084E+02   -0.38646E-02   -0.84729E-03  8119   0.135E-01    0.380E-01
RMM:  16    -0.687553364707E+02   -0.75624E-05   -0.41248E-03  7277   0.759E-02    0.287E-01
RMM:  17    -0.687561187736E+02   -0.78230E-03   -0.20041E-03  6617   0.526E-02    0.373E-01
RMM:  18    -0.687557485669E+02    0.37021E-03   -0.14269E-03  6268   0.439E-02    0.228E-01
RMM:  19    -0.687561279026E+02   -0.37934E-03   -0.13915E-03  6086   0.429E-02    0.768E-02
RMM:  20    -0.687563883489E+02   -0.26045E-03   -0.69896E-04  5597   0.356E-02    0.768E-02
RMM:  21    -0.687564601512E+02   -0.71802E-04   -0.40294E-04  5078   0.225E-02    0.663E-02
RMM:  22    -0.687565996821E+02   -0.13953E-03   -0.30454E-04  5352   0.220E-02    0.405E-02
RMM:  23    -0.687566350683E+02   -0.35386E-04   -0.17362E-04  4608   0.168E-02    0.262E-02
RMM:  24    -0.687566910901E+02   -0.56022E-04   -0.15525E-04  4091   0.123E-02    0.712E-03
RMM:  25    -0.687567137436E+02   -0.22653E-04   -0.92637E-05  3624   0.979E-03    0.555E-03
RMM:  26    -0.687567218448E+02   -0.81012E-05   -0.47619E-05  3046   0.781E-03
   6 F= -.71824669E+02 E0= -.71826334E+02  d E =0.162349E+02
       N       E                     dE             d eps       ncg     rms          rms(c)
DAV:   1    -0.824579488179E+02   -0.13701E+02   -0.80897E+02  5792   0.437E+01    0.404E+01
RMM:   2    -0.866025711077E+02   -0.41446E+01   -0.56898E+01  6206   0.119E+01    0.242E+01
RMM:   3    -0.868182517779E+02   -0.21568E+00   -0.11045E+01  6804   0.587E+00    0.856E+00
RMM:   4    -0.872821286132E+02   -0.46388E+00   -0.31239E+00  7382   0.260E+00    0.658E+00
RMM:   5    -0.871673048779E+02    0.11482E+00   -0.79854E-01  6684   0.143E+00    0.460E+00
RMM:   6    -0.869182328604E+02    0.24907E+00   -0.29955E-01  7231   0.897E-01    0.265E+00
RMM:   7    -0.869403564118E+02   -0.22124E-01   -0.12476E-01  7839   0.581E-01    0.110E+00
RMM:   8    -0.869314697725E+02    0.88866E-02   -0.45062E-02  7935   0.358E-01    0.423E-01
RMM:   9    -0.869337223594E+02   -0.22526E-02   -0.25564E-02  8421   0.217E-01    0.243E-01
RMM:  10    -0.869349840848E+02   -0.12617E-02   -0.11702E-02  8629   0.137E-01    0.190E-01
RMM:  11    -0.869356929890E+02   -0.70890E-03   -0.61893E-03  7472   0.936E-02    0.196E-01
RMM:  12    -0.869361776983E+02   -0.48471E-03   -0.47052E-03  7114   0.762E-02    0.151E-01
RMM:  13    -0.869365580842E+02   -0.38039E-03   -0.23355E-03  6881   0.606E-02    0.216E-01
RMM:  14    -0.869371333432E+02   -0.57526E-03   -0.20283E-03  6976   0.632E-02    0.381E-01
RMM:  15    -0.869373449309E+02   -0.21159E-03   -0.10659E-03  6258   0.432E-02    0.432E-01
RMM:  16    -0.869374594590E+02   -0.11453E-03   -0.62463E-04  5516   0.309E-02    0.450E-01
RMM:  17    -0.869369900698E+02    0.46939E-03   -0.77808E-04  6983   0.592E-02    0.220E-01
RMM:  18    -0.869370057736E+02   -0.15704E-04   -0.12200E-03  6854   0.595E-02    0.516E-02
RMM:  19    -0.869371785373E+02   -0.17276E-03   -0.20689E-04  5466   0.306E-02    0.751E-02
RMM:  20    -0.869372876572E+02   -0.10912E-03   -0.19701E-04  5360   0.227E-02    0.253E-02
RMM:  21    -0.869374881972E+02   -0.20054E-03   -0.29202E-04  5307   0.228E-02    0.498E-02
RMM:  22    -0.869375455254E+02   -0.57328E-04   -0.71611E-05  4622   0.133E-02    0.468E-02
RMM:  23    -0.869375771775E+02   -0.31652E-04   -0.34377E-05  3977   0.788E-03    0.318E-02
RMM:  24    -0.869375919011E+02   -0.14724E-04   -0.21244E-05  3304   0.658E-03    0.274E-02
RMM:  25    -0.869376101715E+02   -0.18270E-04   -0.29270E-05  4234   0.775E-03    0.109E-02
RMM:  26    -0.869376151144E+02   -0.49430E-05   -0.12553E-05  2680   0.533E-03
   7 F= -.89987532E+02 E0= -.89980449E+02  d E =-.192795E+01
       N       E                     dE             d eps       ncg     rms          rms(c)
DAV:   1    -0.869468802999E+02   -0.92701E-02   -0.70306E-01  6360   0.154E+00    0.193E+00
RMM:   2    -0.869485933174E+02   -0.17130E-02   -0.28934E-02  5893   0.333E-01    0.113E+00
RMM:   3    -0.869548408964E+02   -0.62476E-02   -0.90788E-03  6836   0.187E-01    0.401E-01
RMM:   4    -0.869496486468E+02    0.51922E-02   -0.25635E-03  6494   0.114E-01    0.252E-01
RMM:   5    -0.869488148946E+02    0.83375E-03   -0.63672E-04  6147   0.535E-02    0.875E-02
RMM:   6    -0.869488173273E+02   -0.24328E-05   -0.33454E-04  5618   0.297E-02    0.334E-02
RMM:   7    -0.869488122441E+02    0.50832E-05   -0.90248E-05  4824   0.162E-02
   8 F= -.89999139E+02 E0= -.89992182E+02  d E =-.193955E+01
       N       E                     dE             d eps       ncg     rms          rms(c)
DAV:   1    -0.872033796407E+02   -0.25456E+00   -0.12982E+02  5568   0.243E+01    0.173E+01
RMM:   2    -0.941825609481E+02   -0.69792E+01   -0.26890E+01  6368   0.772E+00    0.128E+01
RMM:   3    -0.889969461228E+02    0.51856E+01   -0.39788E+00  6483   0.434E+00    0.939E+00
RMM:   4    -0.871038148457E+02    0.18931E+01   -0.36605E+00  7017   0.284E+00    0.496E+00
RMM:   5    -0.881536106566E+02   -0.10498E+01   -0.25975E+00  7464   0.195E+00    0.114E+01
RMM:   6    -0.870932440002E+02    0.10604E+01   -0.24678E+00  7241   0.171E+00    0.226E+00
RMM:   7    -0.870395423159E+02    0.53702E-01   -0.25490E-01  8733   0.804E-01    0.215E+00
RMM:   8    -0.869890418963E+02    0.50500E-01   -0.35994E-02  8602   0.339E-01    0.183E+00
RMM:   9    -0.868958133238E+02    0.93229E-01   -0.79832E-02  8313   0.293E-01    0.796E-01
RMM:  10    -0.869068005724E+02   -0.10987E-01   -0.13728E-02  8249   0.175E-01    0.101E+00
RMM:  11    -0.868788562820E+02    0.27944E-01   -0.29932E-02  7888   0.192E-01    0.349E-01
RMM:  12    -0.868802477729E+02   -0.13915E-02   -0.14309E-02  7827   0.139E-01    0.174E-01
RMM:  13    -0.868799069253E+02    0.34085E-03   -0.47111E-03  7542   0.896E-02    0.809E-02
RMM:  14    -0.868801909308E+02   -0.28401E-03   -0.17381E-03  7140   0.557E-02    0.818E-02
RMM:  15    -0.868803640652E+02   -0.17313E-03   -0.81542E-04  6898   0.406E-02    0.443E-02
RMM:  16    -0.868805385006E+02   -0.17444E-03   -0.35463E-04  6400   0.272E-02    0.530E-02
RMM:  17    -0.868805791536E+02   -0.40653E-04   -0.22195E-04  5854   0.200E-02    0.425E-02
RMM:  18    -0.868806030029E+02   -0.23849E-04   -0.22050E-04  5733   0.174E-02    0.955E-03
RMM:  19    -0.868806293059E+02   -0.26303E-04   -0.91566E-05  4684   0.125E-02    0.401E-03
RMM:  20    -0.868806661616E+02   -0.36856E-04   -0.62804E-05  4040   0.988E-03    0.104E-02
RMM:  21    -0.868806716031E+02   -0.54415E-05   -0.35330E-05  3373   0.763E-03
   9 F= -.89948860E+02 E0= -.89944806E+02  d E =0.502788E-01
       N       E                     dE             d eps       ncg     rms          rms(c)
DAV:   1    -0.873113536320E+02   -0.43069E+00   -0.43392E+01  5600   0.130E+01    0.780E+00
RMM:   2    -0.874725120616E+02   -0.16116E+00   -0.27051E+00  6682   0.356E+00    0.413E+00
RMM:   3    -0.880576184646E+02   -0.58511E+00   -0.10294E+00  6927   0.184E+00    0.556E+00
RMM:   4    -0.874876034098E+02    0.57002E+00   -0.12809E-01  6651   0.971E-01    0.254E+00
RMM:   5    -0.874183743113E+02    0.69229E-01   -0.23845E-01  8006   0.695E-01    0.820E-01
RMM:   6    -0.874085149147E+02    0.98594E-02   -0.37497E-02  8153   0.330E-01    0.524E-01
RMM:   7    -0.874065154820E+02    0.19994E-02   -0.95059E-03  8707   0.184E-01    0.277E-01
RMM:   8    -0.874068096088E+02   -0.29413E-03   -0.40373E-03  8284   0.103E-01    0.244E-01
RMM:   9    -0.874072355950E+02   -0.42599E-03   -0.23560E-03  7596   0.733E-02    0.146E-01
RMM:  10    -0.874069957516E+02    0.23984E-03   -0.16700E-03  7377   0.618E-02    0.269E-02
RMM:  11    -0.874070588401E+02   -0.63089E-04   -0.63857E-04  6818   0.389E-02    0.219E-02
RMM:  12    -0.874071014752E+02   -0.42635E-04   -0.41668E-04  6351   0.284E-02    0.327E-02
RMM:  13    -0.874071264785E+02   -0.25003E-04   -0.25045E-04  6095   0.227E-02    0.152E-02
RMM:  14    -0.874071440310E+02   -0.17553E-04   -0.16340E-04  5371   0.171E-02    0.163E-02
RMM:  15    -0.874071535686E+02   -0.95376E-05   -0.99881E-05  4717   0.135E-02
  10 F= -.90464806E+02 E0= -.90458887E+02  d E =-.465667E+00
       N       E                     dE             d eps       ncg     rms          rms(c)
DAV:   1    -0.871894737610E+02    0.21767E+00   -0.55257E+01  5448   0.168E+01    0.121E+01
RMM:   2    -0.875437725484E+02   -0.35430E+00   -0.26777E+00  6803   0.374E+00    0.723E+00
RMM:   3    -0.906104793683E+02   -0.30667E+01   -0.14316E+00  7003   0.230E+00    0.141E+01
RMM:   4    -0.875999049235E+02    0.30106E+01   -0.15416E+00  7056   0.176E+00    0.296E+00
RMM:   5    -0.874962707694E+02    0.10363E+00   -0.17455E-01  7788   0.900E-01    0.180E+00
RMM:   6    -0.874232940713E+02    0.72977E-01   -0.41237E-02  8042   0.406E-01    0.669E-01
RMM:   7    -0.874129078872E+02    0.10386E-01   -0.28701E-02  8399   0.242E-01    0.411E-01
RMM:   8    -0.874162133810E+02   -0.33055E-02   -0.21070E-02  8193   0.207E-01    0.460E-01
RMM:   9    -0.874114634840E+02    0.47499E-02   -0.54717E-03  8168   0.121E-01    0.135E-01
RMM:  10    -0.874115611864E+02   -0.97702E-04   -0.21646E-03  8013   0.798E-02    0.526E-02
RMM:  11    -0.874118132638E+02   -0.25208E-03   -0.12616E-03  7635   0.552E-02    0.803E-02
RMM:  12    -0.874117908017E+02    0.22462E-04   -0.48956E-04  6976   0.388E-02    0.160E-02
RMM:  13    -0.874118627260E+02   -0.71924E-04   -0.30777E-04  6528   0.266E-02    0.113E-02
RMM:  14    -0.874119199696E+02   -0.57244E-04   -0.15188E-04  6049   0.196E-02    0.763E-03
RMM:  15    -0.874119559760E+02   -0.36006E-04   -0.11033E-04  5469   0.151E-02    0.488E-03
RMM:  16    -0.874119912739E+02   -0.35298E-04   -0.65268E-05  4940   0.123E-02    0.280E-03
RMM:  17    -0.874120005937E+02   -0.93197E-05   -0.43708E-05  3926   0.958E-03
  11 F= -.90476019E+02 E0= -.90472323E+02  d E =-.112129E-01
       N       E                     dE             d eps       ncg     rms          rms(c)
DAV:   1    -0.874349749962E+02   -0.22984E-01   -0.13885E+01  5520   0.813E+00    0.560E+00
RMM:   2    -0.874896654793E+02   -0.54690E-01   -0.54244E-01  6946   0.185E+00    0.318E+00
RMM:   3    -0.878531384839E+02   -0.36347E+00   -0.37512E-01  7266   0.111E+00    0.329E+00
RMM:   4    -0.874885706396E+02    0.36457E+00   -0.95150E-02  6688   0.654E-01    0.864E-01
RMM:   5    -0.874834222790E+02    0.51484E-02   -0.63562E-02  8290   0.379E-01    0.385E-01
RMM:   6    -0.874837396165E+02   -0.31734E-03   -0.75858E-03  8416   0.175E-01    0.271E-01
RMM:   7    -0.874832839655E+02    0.45565E-03   -0.31294E-03  8102   0.990E-02    0.120E-01
RMM:   8    -0.874832384920E+02    0.45473E-04   -0.89016E-04  7460   0.573E-02    0.629E-02
RMM:   9    -0.874832830812E+02   -0.44589E-04   -0.63251E-04  7093   0.410E-02    0.269E-02
RMM:  10    -0.874833119329E+02   -0.28852E-04   -0.24471E-04  6638   0.287E-02    0.194E-02
RMM:  11    -0.874833343291E+02   -0.22396E-04   -0.18453E-04  6059   0.211E-02    0.927E-03
RMM:  12    -0.874833514945E+02   -0.17165E-04   -0.10144E-04  5611   0.162E-02    0.485E-03
RMM:  13    -0.874833610175E+02   -0.95231E-05   -0.66217E-05  5080   0.128E-02
  12 F= -.90544132E+02 E0= -.90539265E+02  d E =-.793259E-01
       N       E                     dE             d eps       ncg     rms          rms(c)
DAV:   1    -0.875039637740E+02   -0.20612E-01   -0.85696E+00  5560   0.718E+00    0.789E-01
RMM:   2    -0.875268668021E+02   -0.22903E-01   -0.25180E-01  6310   0.177E+00    0.405E-01
RMM:   3    -0.875355024250E+02   -0.86356E-02   -0.83958E-02  8410   0.961E-01    0.334E-01
RMM:   4    -0.875358607795E+02   -0.35835E-03   -0.10087E-02  8330   0.317E-01    0.268E-01
RMM:   5    -0.875359664793E+02   -0.10570E-03   -0.27981E-03  8419   0.142E-01    0.263E-01
RMM:   6    -0.875356519366E+02    0.31454E-03   -0.12880E-03  7834   0.812E-02    0.152E-01
RMM:   7    -0.875356208109E+02    0.31126E-04   -0.49612E-04  7531   0.559E-02    0.752E-02
RMM:   8    -0.875356263796E+02   -0.55687E-05   -0.23438E-04  6946   0.377E-02    0.517E-02
RMM:   9    -0.875356285038E+02   -0.21242E-05   -0.12309E-04  6255   0.224E-02    0.136E-02
RMM:  10    -0.875356334109E+02   -0.49071E-05   -0.64568E-05  5522   0.161E-02
  13 F= -.90596965E+02 E0= -.90591765E+02  d E =-.528337E-01
       N       E                     dE             d eps       ncg     rms          rms(c)
DAV:   1    -0.872942278888E+02    0.24140E+00   -0.72052E+01  5552   0.214E+01    0.245E+00
RMM:   2    -0.875117755506E+02   -0.21755E+00   -0.23827E+00  6282   0.529E+00    0.117E+00
RMM:   3    -0.876014747126E+02   -0.89699E-01   -0.85695E-01  8304   0.320E+00    0.998E-01
RMM:   4    -0.876029911670E+02   -0.15165E-02   -0.10859E-01  8274   0.103E+00    0.897E-01
RMM:   5    -0.876006712783E+02    0.23199E-02   -0.23637E-02  8778   0.443E-01    0.760E-01
RMM:   6    -0.876008353372E+02   -0.16406E-03   -0.94779E-03  8490   0.245E-01    0.469E-01
RMM:   7    -0.876005152253E+02    0.32011E-03   -0.49277E-03  8390   0.169E-01    0.335E-01
RMM:   8    -0.876003523514E+02    0.16287E-03   -0.20145E-03  7100   0.138E-01    0.225E-01
RMM:   9    -0.876003004985E+02    0.51853E-04   -0.13134E-03  7555   0.847E-02    0.449E-02
RMM:  10    -0.876003529019E+02   -0.52403E-04   -0.57663E-04  7767   0.503E-02    0.638E-02
RMM:  11    -0.876003716914E+02   -0.18790E-04   -0.35009E-04  7072   0.459E-02    0.501E-02
RMM:  12    -0.876003929294E+02   -0.21238E-04   -0.18953E-04  6548   0.253E-02    0.362E-02
RMM:  13    -0.876004042921E+02   -0.11363E-04   -0.13906E-04  6071   0.224E-02    0.666E-03
RMM:  14    -0.876004125936E+02   -0.83015E-05   -0.71099E-05  5391   0.149E-02
  14 F= -.90663835E+02 E0= -.90657628E+02  d E =-.119703E+00
       N       E                     dE             d eps       ncg     rms          rms(c)
DAV:   1    -0.876003146941E+02    0.89598E-04   -0.23782E-02  5832   0.378E-01    0.383E-02
RMM:   2    -0.876003824979E+02   -0.67804E-04   -0.72951E-04  6274   0.910E-02    0.196E-02
RMM:   3    -0.876004064477E+02   -0.23950E-04   -0.22220E-04  7305   0.475E-02    0.165E-02
RMM:   4    -0.876004089724E+02   -0.25247E-05   -0.46005E-05  5306   0.208E-02
  15 F= -.90663876E+02 E0= -.90657658E+02  d E =-.119745E+00
       N       E                     dE             d eps       ncg     rms          rms(c)
DAV:   1    -0.875997276423E+02    0.67881E-03   -0.73980E-01  5920   0.214E+00    0.691E-01
RMM:   2    -0.876019418988E+02   -0.22143E-02   -0.25589E-02  6305   0.510E-01    0.392E-01
RMM:   3    -0.876060748952E+02   -0.41330E-02   -0.98210E-03  8123   0.286E-01    0.369E-01
RMM:   4    -0.876025001104E+02    0.35748E-02   -0.24732E-03  7521   0.121E-01    0.110E-01
RMM:   5    -0.876023936360E+02    0.10647E-03   -0.10177E-03  7875   0.648E-02    0.930E-02
RMM:   6    -0.876023245853E+02    0.69051E-04   -0.14882E-04  6496   0.309E-02    0.480E-02
RMM:   7    -0.876023368488E+02   -0.12264E-04   -0.11564E-04  5678   0.212E-02    0.250E-02
RMM:   8    -0.876023333245E+02    0.35243E-05   -0.29488E-05  4529   0.125E-02
  16 F= -.90665402E+02 E0= -.90659047E+02  d E =-.152613E-02
       N       E                     dE             d eps       ncg     rms          rms(c)
DAV:   1    -0.876023303689E+02    0.64799E-05   -0.63386E-02  6048   0.626E-01    0.206E-01
RMM:   2    -0.876025143649E+02   -0.18400E-03   -0.21420E-03  5831   0.149E-01    0.118E-01
RMM:   3    -0.876029443005E+02   -0.42994E-03   -0.90814E-04  7356   0.862E-02    0.116E-01
RMM:   4    -0.876025541992E+02    0.39010E-03   -0.20552E-04  5985   0.375E-02    0.318E-02
RMM:   5    -0.876025456946E+02    0.85046E-05   -0.10837E-04  4681   0.205E-02    0.278E-02
RMM:   6    -0.876025414435E+02    0.42511E-05   -0.12609E-05  3555   0.113E-02
  17 F= -.90665727E+02 E0= -.90659411E+02  d E =-.185068E-02
       N       E                     dE             d eps       ncg     rms          rms(c)
DAV:   1    -0.876039061378E+02   -0.13604E-02   -0.13202E-01  5752   0.908E-01    0.901E-02
RMM:   2    -0.876041930877E+02   -0.28695E-03   -0.32484E-03  5886   0.201E-01    0.482E-02
RMM:   3    -0.876043218590E+02   -0.12877E-03   -0.11538E-03  7610   0.111E-01    0.400E-02
RMM:   4    -0.876043136147E+02    0.82443E-05   -0.14282E-04  6655   0.379E-02    0.306E-02
RMM:   5    -0.876043107157E+02    0.28990E-05   -0.37106E-05  4757   0.187E-02
  18 F= -.90667277E+02 E0= -.90660949E+02  d E =-.154975E-02
       N       E                     dE             d eps       ncg     rms          rms(c)
DAV:   1    -0.876051139530E+02   -0.80034E-03   -0.11910E+00  5504   0.272E+00    0.266E-01
RMM:   2    -0.876077117465E+02   -0.25978E-02   -0.29431E-02  6146   0.613E-01    0.143E-01
RMM:   3    -0.876089036381E+02   -0.11919E-02   -0.10668E-02  8100   0.337E-01    0.126E-01
RMM:   4    -0.876088131070E+02    0.90531E-04   -0.13080E-03  7811   0.112E-01    0.935E-02
RMM:   5    -0.876087960459E+02    0.17061E-04   -0.31585E-04  7560   0.479E-02    0.793E-02
RMM:   6    -0.876087807695E+02    0.15276E-04   -0.11265E-04  5939   0.262E-02    0.514E-02
RMM:   7    -0.876087813479E+02   -0.57840E-06   -0.76918E-05  5652   0.217E-02
  19 F= -.90671091E+02 E0= -.90664694E+02  d E =-.536400E-02
       N       E                     dE             d eps       ncg     rms          rms(c)
DAV:   1    -0.875988463622E+02    0.99344E-02   -0.47654E+00  5512   0.546E+00    0.543E-01
RMM:   2    -0.876095013676E+02   -0.10655E-01   -0.12117E-01  6172   0.127E+00    0.285E-01
RMM:   3    -0.876141695617E+02   -0.46682E-02   -0.44630E-02  8327   0.693E-01    0.226E-01
RMM:   4    -0.876141802552E+02   -0.10694E-04   -0.54900E-03  8079   0.230E-01    0.183E-01
RMM:   5    -0.876140637824E+02    0.11647E-03   -0.12296E-03  8242   0.973E-02    0.155E-01
RMM:   6    -0.876139981744E+02    0.65608E-04   -0.42691E-04  7425   0.501E-02    0.105E-01
RMM:   7    -0.876139983637E+02   -0.18929E-06   -0.27985E-04  6801   0.398E-02    0.608E-02
RMM:   8    -0.876140032622E+02   -0.48985E-05   -0.11361E-04  5824   0.244E-02    0.266E-02
RMM:   9    -0.876140067263E+02   -0.34641E-05   -0.53221E-05  4990   0.148E-02
  20 F= -.90675015E+02 E0= -.90668507E+02  d E =-.928833E-02
       N       E                     dE             d eps       ncg     rms          rms(c)
DAV:   1    -0.876135900366E+02    0.41323E-03   -0.30723E-01  6112   0.139E+00    0.146E-01
RMM:   2    -0.876142594162E+02   -0.66938E-03   -0.77843E-03  6082   0.312E-01    0.737E-02
RMM:   3    -0.876145636923E+02   -0.30428E-03   -0.27581E-03  7910   0.172E-01    0.573E-02
RMM:   4    -0.876145600240E+02    0.36682E-05   -0.36885E-04  7460   0.593E-02    0.442E-02
RMM:   5    -0.876145529923E+02    0.70317E-05   -0.10182E-04  6184   0.271E-02    0.354E-02
RMM:   6    -0.876145500045E+02    0.29878E-05   -0.42838E-05  4713   0.157E-02
  21 F= -.90675231E+02 E0= -.90668698E+02  d E =-.950360E-02
       N       E                     dE             d eps       ncg     rms          rms(c)
DAV:   1    -0.876158890794E+02   -0.13361E-02   -0.13050E-01  6048   0.842E-01    0.193E-01
RMM:   2    -0.876163665289E+02   -0.47745E-03   -0.54277E-03  6574   0.190E-01    0.102E-01
RMM:   3    -0.876167483581E+02   -0.38183E-03   -0.14233E-03  7772   0.960E-02    0.140E-01
RMM:   4    -0.876163700232E+02    0.37833E-03   -0.19616E-04  7036   0.407E-02    0.569E-02
RMM:   5    -0.876163648820E+02    0.51411E-05   -0.11883E-04  5835   0.231E-02    0.350E-02
RMM:   6    -0.876163613676E+02    0.35144E-05   -0.39568E-05  4767   0.151E-02
  22 F= -.90676353E+02 E0= -.90669779E+02  d E =-.112225E-02
       N       E                     dE             d eps       ncg     rms          rms(c)
DAV:   1    -0.876165914689E+02   -0.22659E-03   -0.11789E+00  5760   0.254E+00    0.570E-01
RMM:   2    -0.876208386663E+02   -0.42472E-02   -0.48893E-02  6917   0.574E-01    0.290E-01
RMM:   3    -0.876242688534E+02   -0.34302E-02   -0.12938E-02  8096   0.286E-01    0.408E-01
RMM:   4    -0.876210602965E+02    0.32086E-02   -0.16274E-03  7806   0.118E-01    0.174E-01
RMM:   5    -0.876209990783E+02    0.61218E-04   -0.10888E-03  7791   0.670E-02    0.110E-01
RMM:   6    -0.876209488141E+02    0.50264E-04   -0.30459E-04  7021   0.394E-02    0.249E-02
RMM:   7    -0.876209603719E+02   -0.11558E-04   -0.11290E-04  6244   0.224E-02    0.188E-02
RMM:   8    -0.876209677995E+02   -0.74276E-05   -0.58619E-05  5322   0.154E-02
  23 F= -.90678893E+02 E0= -.90672194E+02  d E =-.366266E-02
       N       E                     dE             d eps       ncg     rms          rms(c)
DAV:   1    -0.876087244503E+02    0.12236E-01   -0.47113E+00  5600   0.507E+00    0.116E+00
RMM:   2    -0.876251701041E+02   -0.16446E-01   -0.19583E-01  6984   0.117E+00    0.553E-01
RMM:   3    -0.876396067557E+02   -0.14437E-01   -0.51603E-02  8136   0.569E-01    0.805E-01
RMM:   4    -0.876267954202E+02    0.12811E-01   -0.62896E-03  7920   0.233E-01    0.359E-01
RMM:   5    -0.876266260916E+02    0.16933E-03   -0.41590E-03  8314   0.132E-01    0.235E-01
RMM:   6    -0.876263807661E+02    0.24533E-03   -0.12631E-03  7851   0.775E-02    0.547E-02
RMM:   7    -0.876264201285E+02   -0.39362E-04   -0.40626E-04  7305   0.431E-02    0.404E-02
RMM:   8    -0.876264470651E+02   -0.26937E-04   -0.20722E-04  6738   0.287E-02    0.197E-02
RMM:   9    -0.876264587358E+02   -0.11671E-04   -0.11607E-04  6215   0.214E-02    0.106E-02
RMM:  10    -0.876264674493E+02   -0.87134E-05   -0.70309E-05  5465   0.156E-02
  24 F= -.90680264E+02 E0= -.90673348E+02  d E =-.503385E-02
       N       E                     dE             d eps       ncg     rms          rms(c)
DAV:   1    -0.876271977584E+02   -0.73902E-03   -0.36690E-02  6424   0.436E-01    0.737E-02
RMM:   2    -0.876272750078E+02   -0.77249E-04   -0.10039E-03  6484   0.876E-02    0.391E-02
RMM:   3    -0.876273319658E+02   -0.56958E-04   -0.29752E-04  7278   0.452E-02    0.386E-02
RMM:   4    -0.876272965713E+02    0.35394E-04   -0.59151E-05  5567   0.211E-02    0.174E-02
RMM:   5    -0.876272960301E+02    0.54113E-06   -0.30760E-05  4496   0.127E-02
  25 F= -.90680762E+02 E0= -.90673851E+02  d E =-.497553E-03
       N       E                     dE             d eps       ncg     rms          rms(c)
DAV:   1    -0.876288782408E+02   -0.15817E-02   -0.33166E-01  5960   0.131E+00    0.227E-01
RMM:   2    -0.876295186409E+02   -0.64040E-03   -0.85696E-03  6461   0.261E-01    0.119E-01
RMM:   3    -0.876300394048E+02   -0.52076E-03   -0.26371E-03  7810   0.135E-01    0.123E-01
RMM:   4    -0.876296533890E+02    0.38602E-03   -0.33089E-04  7290   0.517E-02    0.513E-02
RMM:   5    -0.876296389545E+02    0.14435E-04   -0.16137E-04  6461   0.285E-02    0.420E-02
RMM:   6    -0.876296372883E+02    0.16661E-05   -0.53928E-05  5233   0.174E-02
  26 F= -.90682110E+02 E0= -.90675194E+02  d E =-.184580E-02
       N       E                     dE             d eps       ncg     rms          rms(c)
DAV:   1    -0.876307888201E+02   -0.11499E-02   -0.13260E+00  5760   0.261E+00    0.462E-01
RMM:   2    -0.876333407891E+02   -0.25520E-02   -0.34154E-02  6767   0.521E-01    0.234E-01
RMM:   3    -0.876354470939E+02   -0.21063E-02   -0.10659E-02  7977   0.267E-01    0.245E-01
RMM:   4    -0.876339141139E+02    0.15330E-02   -0.13070E-03  7692   0.101E-01    0.994E-02
RMM:   5    -0.876338463167E+02    0.67797E-04   -0.62362E-04  7634   0.549E-02    0.821E-02
RMM:   6    -0.876338328221E+02    0.13495E-04   -0.18647E-04  6533   0.314E-02    0.401E-02
RMM:   7    -0.876338379772E+02   -0.51552E-05   -0.11072E-04  5995   0.223E-02    0.340E-02
RMM:   8    -0.876338392056E+02   -0.12284E-05   -0.57135E-05  5084   0.148E-02
  27 F= -.90684326E+02 E0= -.90677418E+02  d E =-.406187E-02
       N       E                     dE             d eps       ncg     rms          rms(c)
DAV:   1    -0.876278400016E+02    0.59980E-02   -0.53286E+00  5760   0.522E+00    0.904E-01
RMM:   2    -0.876381932449E+02   -0.10353E-01   -0.13648E-01  6833   0.105E+00    0.458E-01
RMM:   3    -0.876464402371E+02   -0.82470E-02   -0.43177E-02  8210   0.532E-01    0.480E-01
RMM:   4    -0.876406246779E+02    0.58156E-02   -0.51312E-03  7949   0.201E-01    0.203E-01
RMM:   5    -0.876403920336E+02    0.23264E-03   -0.24333E-03  8271   0.108E-01    0.171E-01
RMM:   6    -0.876403092793E+02    0.82754E-04   -0.68871E-04  7529   0.601E-02    0.834E-02
RMM:   7    -0.876403262484E+02   -0.16969E-04   -0.44476E-04  6982   0.434E-02    0.739E-02
RMM:   8    -0.876403242448E+02    0.20036E-05   -0.20836E-04  6480   0.278E-02    0.124E-02
RMM:   9    -0.876403336703E+02   -0.94254E-05   -0.74060E-05  5568   0.175E-02
  28 F= -.90686851E+02 E0= -.90679969E+02  d E =-.658630E-02
       N       E                     dE             d eps       ncg     rms          rms(c)
DAV:   1    -0.876433059702E+02   -0.29817E-02   -0.33522E-01  6352   0.134E+00    0.219E-01
RMM:   2    -0.876439381470E+02   -0.63218E-03   -0.82721E-03  6400   0.271E-01    0.102E-01
RMM:   3    -0.876442491665E+02   -0.31102E-03   -0.21396E-03  7808   0.139E-01    0.770E-02
RMM:   4    -0.876441532737E+02    0.95893E-04   -0.46230E-04  7492   0.551E-02    0.535E-02
RMM:   5    -0.876441467175E+02    0.65562E-05   -0.12965E-04  6501   0.280E-02    0.334E-02
RMM:   6    -0.876441471021E+02   -0.38461E-06   -0.59494E-05  5393   0.173E-02
  29 F= -.90689633E+02 E0= -.90682784E+02  d E =-.278183E-02
       N       E                     dE             d eps       ncg     rms          rms(c)
DAV:   1    -0.876448152852E+02   -0.66857E-03   -0.30150E+00  5760   0.402E+00    0.670E-01
RMM:   2    -0.876503907681E+02   -0.55755E-02   -0.74222E-02  6625   0.813E-01    0.314E-01
RMM:   3    -0.876530151750E+02   -0.26244E-02   -0.19210E-02  8207   0.421E-01    0.224E-01
RMM:   4    -0.876523080814E+02    0.70709E-03   -0.39405E-03  8009   0.159E-01    0.170E-01
RMM:   5    -0.876521232215E+02    0.18486E-03   -0.10026E-03  7980   0.786E-02    0.107E-01
RMM:   6    -0.876520944282E+02    0.28793E-04   -0.39166E-04  7102   0.434E-02    0.571E-02
RMM:   7    -0.876521049463E+02   -0.10518E-04   -0.19457E-04  6536   0.293E-02    0.285E-02
RMM:   8    -0.876521086875E+02   -0.37413E-05   -0.99349E-05  5870   0.199E-02
  30 F= -.90694503E+02 E0= -.90687705E+02  d E =-.765203E-02
       N       E                     dE             d eps       ncg     rms          rms(c)
DAV:   1    -0.876524908824E+02   -0.38594E-03   -0.66946E-01  6056   0.190E+00    0.300E-01
RMM:   2    -0.876537368014E+02   -0.12459E-02   -0.16376E-02  6419   0.382E-01    0.140E-01
RMM:   3    -0.876541864757E+02   -0.44967E-03   -0.43276E-03  7991   0.197E-01    0.816E-02
RMM:   4    -0.876542083112E+02   -0.21836E-04   -0.87189E-04  7690   0.746E-02    0.821E-02
RMM:   5    -0.876541488159E+02    0.59495E-04   -0.20610E-04  7146   0.369E-02    0.463E-02
RMM:   6    -0.876541533676E+02   -0.45517E-05   -0.10257E-04  5974   0.221E-02    0.235E-02
RMM:   7    -0.876541573648E+02   -0.39972E-05   -0.51206E-05  5166   0.155E-02
  31 F= -.90695097E+02 E0= -.90688331E+02  d E =-.824603E-02
       N       E                     dE             d eps       ncg     rms          rms(c)
DAV:   1    -0.876558663457E+02   -0.17130E-02   -0.99662E-01  5688   0.219E+00    0.674E-01
RMM:   2    -0.876571218607E+02   -0.12555E-02   -0.18251E-02  6328   0.406E-01    0.357E-01
RMM:   3    -0.876576232808E+02   -0.50142E-03   -0.65433E-03  7886   0.218E-01    0.111E-01
RMM:   4    -0.876576407343E+02   -0.17454E-04   -0.98345E-04  7755   0.780E-02    0.979E-02
RMM:   5    -0.876576077223E+02    0.33012E-04   -0.25369E-04  6965   0.381E-02    0.766E-02
RMM:   6    -0.876575414347E+02    0.66288E-04   -0.10835E-04  5872   0.232E-02    0.413E-02
RMM:   7    -0.876575471900E+02   -0.57553E-05   -0.56983E-05  5102   0.166E-02
  32 F= -.90696895E+02 E0= -.90690247E+02  d E =-.179832E-02
       N       E                     dE             d eps       ncg     rms          rms(c)
DAV:   1    -0.876577388330E+02   -0.19740E-03   -0.14667E+00  5608   0.266E+00    0.804E-01
RMM:   2    -0.876596080870E+02   -0.18693E-02   -0.26893E-02  6406   0.491E-01    0.423E-01
RMM:   3    -0.876603083787E+02   -0.70029E-03   -0.95236E-03  7985   0.264E-01    0.128E-01
RMM:   4    -0.876603094779E+02   -0.10992E-05   -0.13886E-03  7858   0.932E-02    0.113E-01
RMM:   5    -0.876603281381E+02   -0.18660E-04   -0.38493E-04  7183   0.450E-02    0.892E-02
RMM:   6    -0.876602223894E+02    0.10575E-03   -0.14253E-04  6233   0.264E-02    0.495E-02
RMM:   7    -0.876602306399E+02   -0.82505E-05   -0.81006E-05  5332   0.188E-02
  33 F= -.90697649E+02 E0= -.90691144E+02  d E =-.255226E-02
       N       E                     dE             d eps       ncg     rms          rms(c)
DAV:   1    -0.876610519358E+02   -0.82955E-03   -0.50924E-02  6192   0.544E-01    0.991E-02
RMM:   2    -0.876612781061E+02   -0.22617E-03   -0.22572E-03  6659   0.124E-01    0.634E-02
RMM:   3    -0.876613171662E+02   -0.39060E-04   -0.53946E-04  7616   0.622E-02    0.645E-02
RMM:   4    -0.876612492800E+02    0.67886E-04   -0.89712E-05  6286   0.269E-02    0.342E-02
RMM:   5    -0.876612434259E+02    0.58541E-05   -0.37329E-05  4937   0.152E-02
  34 F= -.90698211E+02 E0= -.90691698E+02  d E =-.562173E-03
       N       E                     dE             d eps       ncg     rms          rms(c)
DAV:   1    -0.876620091724E+02   -0.75989E-03   -0.44886E-01  5480   0.161E+00    0.276E-01
RMM:   2    -0.876638616912E+02   -0.18525E-02   -0.18555E-02  6773   0.362E-01    0.185E-01
RMM:   3    -0.876641211063E+02   -0.25942E-03   -0.43621E-03  7906   0.180E-01    0.172E-01
RMM:   4    -0.876635438734E+02    0.57723E-03   -0.62860E-04  7804   0.742E-02    0.900E-02
RMM:   5    -0.876635013369E+02    0.42536E-04   -0.23127E-04  7159   0.382E-02    0.625E-02
RMM:   6    -0.876635024616E+02   -0.11247E-05   -0.10725E-04  6258   0.236E-02    0.144E-02
RMM:   7    -0.876635061584E+02   -0.36968E-05   -0.40958E-05  4814   0.141E-02
  35 F= -.90699126E+02 E0= -.90692602E+02  d E =-.147703E-02
       N       E                     dE             d eps       ncg     rms          rms(c)
DAV:   1    -0.876642081088E+02   -0.70565E-03   -0.49179E-02  5792   0.545E-01    0.230E-01
RMM:   2    -0.876644428437E+02   -0.23473E-03   -0.26843E-03  6595   0.140E-01    0.123E-01
RMM:   3    -0.876649084224E+02   -0.46558E-03   -0.83270E-04  7775   0.743E-02    0.126E-01
RMM:   4    -0.876644775557E+02    0.43087E-03   -0.18740E-04  6606   0.354E-02    0.349E-02
RMM:   5    -0.876644937008E+02   -0.16145E-04   -0.12156E-04  5499   0.207E-02    0.241E-02
RMM:   6    -0.876644858676E+02    0.78332E-05   -0.38412E-05  4585   0.133E-02
  36 F= -.90699683E+02 E0= -.90693125E+02  d E =-.557163E-03
       N       E                     dE             d eps       ncg     rms          rms(c)
DAV:   1    -0.876648386126E+02   -0.34491E-03   -0.60122E-02  5680   0.601E-01    0.257E-01
RMM:   2    -0.876651226519E+02   -0.28404E-03   -0.32305E-03  6563   0.153E-01    0.137E-01
RMM:   3    -0.876657203740E+02   -0.59772E-03   -0.10451E-03  7773   0.814E-02    0.144E-01
RMM:   4    -0.876651608795E+02    0.55949E-03   -0.23825E-04  6727   0.387E-02    0.388E-02
RMM:   5    -0.876651785931E+02   -0.17714E-04   -0.13674E-04  5508   0.220E-02    0.263E-02
RMM:   6    -0.876651689590E+02    0.96341E-05   -0.39783E-05  4631   0.142E-02
  37 F= -.90699901E+02 E0= -.90693309E+02  d E =-.774518E-03
       N       E                     dE             d eps       ncg     rms          rms(c)
DAV:   1    -0.876655278908E+02   -0.34930E-03   -0.27877E-02  5864   0.434E-01    0.423E-02
RMM:   2    -0.876656124217E+02   -0.84531E-04   -0.96437E-04  6239   0.996E-02    0.241E-02
RMM:   3    -0.876656451399E+02   -0.32718E-04   -0.26722E-04  7409   0.514E-02    0.250E-02
RMM:   4    -0.876656351683E+02    0.99716E-05   -0.42587E-05  5236   0.207E-02
  38 F= -.90700101E+02 E0= -.90693508E+02  d E =-.200088E-03
       N       E                     dE             d eps       ncg     rms          rms(c)
DAV:   1    -0.876659171611E+02   -0.27202E-03   -0.25112E-01  5576   0.130E+00    0.125E-01
RMM:   2    -0.876666692426E+02   -0.75208E-03   -0.84589E-03  6319   0.296E-01    0.710E-02
RMM:   3    -0.876669737970E+02   -0.30455E-03   -0.23682E-03  7929   0.153E-01    0.748E-02
RMM:   4    -0.876668770792E+02    0.96718E-04   -0.29833E-04  7546   0.550E-02    0.503E-02
RMM:   5    -0.876668789387E+02   -0.18595E-05   -0.92312E-05  6562   0.263E-02
  39 F= -.90700548E+02 E0= -.90693981E+02  d E =-.647725E-03
       N       E                     dE             d eps       ncg     rms          rms(c)
DAV:   1    -0.876648932691E+02    0.19838E-02   -0.10028E+00  5440   0.260E+00    0.262E-01
RMM:   2    -0.876678380588E+02   -0.29448E-02   -0.33784E-02  6479   0.593E-01    0.141E-01
RMM:   3    -0.876689909039E+02   -0.11528E-02   -0.96492E-03  8134   0.308E-01    0.145E-01
RMM:   4    -0.876687084388E+02    0.28247E-03   -0.12018E-03  7980   0.109E-01    0.102E-01
RMM:   5    -0.876686959418E+02    0.12497E-04   -0.34856E-04  7760   0.497E-02    0.759E-02
RMM:   6    -0.876686955590E+02    0.38274E-06   -0.14731E-04  6609   0.291E-02    0.482E-02
RMM:   7    -0.876686903793E+02    0.51798E-05   -0.89295E-05  6176   0.230E-02
  40 F= -.90700777E+02 E0= -.90694194E+02  d E =-.876868E-03
       N       E                     dE             d eps       ncg     rms          rms(c)
DAV:   1    -0.876688435959E+02   -0.14804E-03   -0.57203E-02  6016   0.503E-01    0.362E-01
RMM:   2    -0.876689921264E+02   -0.14853E-03   -0.13451E-03  5970   0.991E-02    0.204E-01
RMM:   3    -0.876705357187E+02   -0.15436E-02   -0.11681E-03  7117   0.682E-02    0.234E-01
RMM:   4    -0.876689254750E+02    0.16102E-02   -0.52547E-04  5982   0.428E-02    0.391E-02
RMM:   5    -0.876689618715E+02   -0.36396E-04   -0.15272E-04  4786   0.227E-02    0.288E-02
RMM:   6    -0.876689506446E+02    0.11227E-04   -0.31342E-05  4064   0.141E-02    0.970E-03
RMM:   7    -0.876689517602E+02   -0.11156E-05   -0.97973E-06  3448   0.815E-03
  41 F= -.90700974E+02 E0= -.90694419E+02  d E =-.196903E-03
       N       E                     dE             d eps       ncg     rms          rms(c)
DAV:   1    -0.876689474478E+02    0.31968E-05   -0.43702E-04  6184   0.441E-02    0.322E-02
RMM:   2    -0.876689492775E+02   -0.18297E-05   -0.12028E-05  3014   0.922E-03
  42 F= -.90700977E+02 E0= -.90694416E+02  d E =-.200043E-03
       N       E                     dE             d eps       ncg     rms          rms(c)
DAV:   1    -0.876690168043E+02   -0.69357E-04   -0.23423E-02  6352   0.349E-01    0.119E-01
RMM:   2    -0.876690629878E+02   -0.46184E-04   -0.67237E-04  5769   0.832E-02    0.604E-02
RMM:   3    -0.876690860658E+02   -0.23078E-04   -0.34345E-04  6715   0.503E-02    0.438E-02
RMM:   4    -0.876690549978E+02    0.31068E-04   -0.64364E-05  4528   0.202E-02    0.149E-02
RMM:   5    -0.876690567968E+02   -0.17990E-05   -0.13677E-05  3500   0.109E-02
  43 F= -.90701105E+02 E0= -.90694516E+02  d E =-.127940E-03
