       N       E                     dE             d eps       ncg     rms          rms(c)
DAV:   1     0.235322038745E+04    0.23532E+04   -0.93831E+04  5760   0.161E+03
DAV:   2     0.307563654762E+03   -0.20457E+04   -0.19901E+04  5800   0.465E+02
DAV:   3    -0.611831135610E+02   -0.36875E+03   -0.35741E+03  6368   0.205E+02
DAV:   4    -0.973467188909E+02   -0.36164E+02   -0.35339E+02  6984   0.576E+01
DAV:   5    -0.100425262949E+03   -0.30785E+01   -0.30538E+01  8664   0.125E+01    0.120E+02
RMM:   6    -0.970151615668E+02    0.34101E+01   -0.24416E+01  6363   0.798E+00    0.522E+01
RMM:   7    -0.175005391819E+03   -0.77990E+02   -0.71249E+01  6975   0.125E+01    0.704E+01
RMM:   8    -0.988719777125E+02    0.76133E+02   -0.12058E+01  6625   0.884E+00    0.295E+01
RMM:   9    -0.913562583801E+02    0.75157E+01   -0.11227E+01  7227   0.531E+00    0.103E+01
RMM:  10    -0.898122503366E+02    0.15440E+01   -0.35031E+00  8008   0.290E+00    0.602E+00
RMM:  11    -0.897271000434E+02    0.85150E-01   -0.96250E-01  9396   0.158E+00    0.478E+00
RMM:  12    -0.897456951904E+02   -0.18595E-01   -0.32312E-01  8872   0.106E+00    0.395E+00
RMM:  13    -0.895964227954E+02    0.14927E+00   -0.69206E-01  8279   0.140E+00    0.239E+00
RMM:  14    -0.895857558706E+02    0.10667E-01   -0.11343E-01  8811   0.718E-01    0.159E+00
RMM:  15    -0.895738121049E+02    0.11944E-01   -0.16466E-01  8835   0.582E-01    0.962E-01
RMM:  16    -0.895749544850E+02   -0.11424E-02   -0.68676E-02  8824   0.450E-01    0.372E-01
RMM:  17    -0.895765127974E+02   -0.15583E-02   -0.27882E-02  9586   0.260E-01    0.396E-01
RMM:  18    -0.895778705959E+02   -0.13578E-02   -0.17241E-02  9382   0.190E-01    0.236E-01
RMM:  19    -0.895785612156E+02   -0.69062E-03   -0.97346E-03  9717   0.139E-01    0.185E-01
RMM:  20    -0.895791855166E+02   -0.62430E-03   -0.64081E-03  9561   0.102E-01    0.178E-01
RMM:  21    -0.895796541228E+02   -0.46861E-03   -0.42091E-03  9070   0.866E-02    0.865E-02
RMM:  22    -0.895800554533E+02   -0.40133E-03   -0.26642E-03  8948   0.712E-02    0.503E-02
RMM:  23    -0.895804267943E+02   -0.37134E-03   -0.18049E-03  7904   0.539E-02    0.555E-02
RMM:  24    -0.895807128280E+02   -0.28603E-03   -0.13758E-03  6735   0.420E-02    0.385E-02
RMM:  25    -0.895809026550E+02   -0.18983E-03   -0.90063E-04  5830   0.339E-02    0.292E-02
RMM:  26    -0.895810159025E+02   -0.11325E-03   -0.68324E-04  5208   0.277E-02    0.170E-02
RMM:  27    -0.895811079561E+02   -0.92054E-04   -0.46334E-04  4927   0.227E-02    0.126E-02
RMM:  28    -0.895812083539E+02   -0.10040E-03   -0.37612E-04  5079   0.217E-02    0.179E-02
RMM:  29    -0.895812356855E+02   -0.27332E-04   -0.25637E-04  4646   0.168E-02    0.137E-02
RMM:  30    -0.895812565894E+02   -0.20904E-04   -0.20605E-04  4164   0.130E-02    0.158E-02
RMM:  31    -0.895812698756E+02   -0.13286E-04   -0.15132E-04  3795   0.111E-02    0.211E-02
RMM:  32    -0.895812846852E+02   -0.14810E-04   -0.11565E-04  3598   0.975E-03    0.194E-02
RMM:  33    -0.895812958479E+02   -0.11163E-04   -0.87269E-05  3563   0.914E-03    0.154E-02
RMM:  34    -0.895813027365E+02   -0.68887E-05   -0.65368E-05  3299   0.827E-03
   1 F= -.92703160E+02 E0= -.92699226E+02  d E =-.927032E+02
       N       E                     dE             d eps       ncg     rms          rms(c)
DAV:   1    -0.220847236834E+02    0.67497E+02   -0.44682E+03  7352   0.163E+02    0.916E+01
RMM:   2    -0.626956401996E+02   -0.40611E+02   -0.54571E+02  7294   0.506E+01    0.522E+01
RMM:   3    -0.130864799358E+03   -0.68169E+02   -0.13532E+02  6482   0.238E+01    0.452E+01
RMM:   4    -0.778103201243E+02    0.53054E+02   -0.90722E+01  7065   0.170E+01    0.218E+01
RMM:   5    -0.745072649841E+02    0.33031E+01   -0.33728E+01  7741   0.944E+00    0.125E+01
RMM:   6    -0.763918149693E+02   -0.18845E+01   -0.12308E+01  7941   0.571E+00    0.165E+01
RMM:   7    -0.735287242848E+02    0.28631E+01   -0.51783E+00  9028   0.358E+00    0.120E+01
RMM:   8    -0.737974848094E+02   -0.26876E+00   -0.44997E+00  9374   0.265E+00    0.108E+01
RMM:   9    -0.743558657236E+02   -0.55838E+00   -0.32120E+00  9293   0.207E+00    0.101E+01
RMM:  10    -0.741650486604E+02    0.19082E+00   -0.32361E+00  8326   0.220E+00    0.456E+00
RMM:  11    -0.743508609714E+02   -0.18581E+00   -0.15896E+00  8208   0.185E+00    0.402E+00
RMM:  12    -0.744426342797E+02   -0.91773E-01   -0.15637E+00  9117   0.148E+00    0.267E+00
RMM:  13    -0.744978899944E+02   -0.55256E-01   -0.10736E+00  9193   0.118E+00    0.146E+00
RMM:  14    -0.745689882872E+02   -0.71098E-01   -0.76345E-01  8416   0.101E+00    0.160E+00
RMM:  15    -0.745997046310E+02   -0.30716E-01   -0.49270E-01  9418   0.798E-01    0.113E+00
RMM:  16    -0.746560818156E+02   -0.56377E-01   -0.43806E-01  9372   0.692E-01    0.201E+00
RMM:  17    -0.746528196308E+02    0.32622E-02   -0.25939E-01  8595   0.611E-01    0.107E+00
RMM:  18    -0.746738032637E+02   -0.20984E-01   -0.21556E-01  9038   0.484E-01    0.107E+00
RMM:  19    -0.746833300774E+02   -0.95268E-02   -0.13678E-01  8681   0.411E-01    0.858E-01
RMM:  20    -0.746942807594E+02   -0.10951E-01   -0.11250E-01  8366   0.339E-01    0.941E-01
RMM:  21    -0.747020941838E+02   -0.78134E-02   -0.87029E-02  8071   0.291E-01    0.980E-01
RMM:  22    -0.747094101997E+02   -0.73160E-02   -0.68709E-02  7757   0.258E-01    0.116E+00
RMM:  23    -0.747106039608E+02   -0.11938E-02   -0.51122E-02  7343   0.243E-01    0.816E-01
RMM:  24    -0.747126221255E+02   -0.20182E-02   -0.37211E-02  7367   0.242E-01    0.406E-01
RMM:  25    -0.747163773471E+02   -0.37552E-02   -0.28440E-02  6449   0.166E-01    0.410E-01
RMM:  26    -0.747201826874E+02   -0.38053E-02   -0.22057E-02  6341   0.169E-01    0.626E-01
RMM:  27    -0.747194121450E+02    0.77054E-03   -0.16367E-02  5878   0.125E-01    0.315E-01
RMM:  28    -0.747207616774E+02   -0.13495E-02   -0.13812E-02  5739   0.109E-01    0.933E-02
RMM:  29    -0.747220435363E+02   -0.12819E-02   -0.10806E-02  5180   0.878E-02    0.977E-02
RMM:  30    -0.747230619428E+02   -0.10184E-02   -0.86992E-03  5423   0.811E-02    0.186E-01
RMM:  31    -0.747237812241E+02   -0.71928E-03   -0.70681E-03  5146   0.689E-02    0.208E-01
RMM:  32    -0.747242716491E+02   -0.49043E-03   -0.60422E-03  4743   0.616E-02    0.127E-01
RMM:  33    -0.747247686593E+02   -0.49701E-03   -0.51208E-03  4547   0.546E-02    0.570E-02
RMM:  34    -0.747252213039E+02   -0.45264E-03   -0.42651E-03  4084   0.484E-02    0.271E-02
RMM:  35    -0.747255822995E+02   -0.36100E-03   -0.35454E-03  3529   0.422E-02    0.165E-02
RMM:  36    -0.747258786170E+02   -0.29632E-03   -0.30005E-03  3879   0.395E-02    0.221E-02
RMM:  37    -0.747261239662E+02   -0.24535E-03   -0.25142E-03  3648   0.355E-02    0.395E-02
RMM:  38    -0.747263249547E+02   -0.20099E-03   -0.20910E-03  3194   0.312E-02    0.486E-02
RMM:  39    -0.747264975663E+02   -0.17261E-03   -0.17526E-03  3475   0.288E-02    0.636E-02
RMM:  40    -0.747266426129E+02   -0.14505E-03   -0.14826E-03  3356   0.264E-02    0.782E-02
RMM:  41    -0.747267607091E+02   -0.11810E-03   -0.12233E-03  3326   0.240E-02    0.885E-02
RMM:  42    -0.747268579140E+02   -0.97205E-04   -0.10304E-03  3081   0.218E-02    0.960E-02
RMM:  43    -0.747269350657E+02   -0.77152E-04   -0.83574E-04  2743   0.196E-02    0.101E-01
RMM:  44    -0.747270033873E+02   -0.68322E-04   -0.71322E-04  2939   0.180E-02    0.108E-01
RMM:  45    -0.747270550463E+02   -0.51659E-04   -0.57047E-04  2574   0.161E-02    0.112E-01
RMM:  46    -0.747271004307E+02   -0.45384E-04   -0.48910E-04  2508   0.147E-02    0.117E-01
RMM:  47    -0.747271335592E+02   -0.33128E-04   -0.38972E-04  2515   0.136E-02    0.119E-01
RMM:  48    -0.747271642641E+02   -0.30705E-04   -0.33912E-04  2352   0.124E-02    0.122E-01
RMM:  49    -0.747271902895E+02   -0.26025E-04   -0.27093E-04  2654   0.117E-02    0.127E-01
RMM:  50    -0.747272161957E+02   -0.25906E-04   -0.23603E-04  2780   0.112E-02    0.135E-01
RMM:  51    -0.747272336142E+02   -0.17418E-04   -0.19044E-04  2519   0.102E-02    0.139E-01
RMM:  52    -0.747272486853E+02   -0.15071E-04   -0.16349E-04  2326   0.931E-03    0.142E-01
RMM:  53    -0.747272548042E+02   -0.61189E-05   -0.13234E-04  2158   0.848E-03    0.140E-01
RMM:  54    -0.747272643590E+02   -0.95549E-05   -0.11410E-04  2110   0.795E-03    0.142E-01
RMM:  55    -0.747272722390E+02   -0.78800E-05   -0.94587E-05  2001   0.737E-03
   2 F= -.77984408E+02 E0= -.77983286E+02  d E =0.147188E+02
       N       E                     dE             d eps       ncg     rms          rms(c)
DAV:   1    -0.509241808937E+02    0.23803E+02   -0.27364E+03  6744   0.114E+02    0.423E+01
RMM:   2    -0.998415563881E+02   -0.48917E+02   -0.46654E+02  7301   0.375E+01    0.218E+01
RMM:   3    -0.100462994445E+03   -0.62144E+00   -0.71588E+01  6659   0.172E+01    0.227E+01
RMM:   4    -0.950953588918E+02    0.53676E+01   -0.26833E+01  7160   0.958E+00    0.190E+01
RMM:   5    -0.935695958534E+02    0.15258E+01   -0.11247E+01  7964   0.545E+00    0.115E+01
RMM:   6    -0.931404940722E+02    0.42910E+00   -0.31491E+00  8903   0.301E+00    0.942E+00
RMM:   7    -0.949939241236E+02   -0.18534E+01   -0.46323E+00  8898   0.340E+00    0.155E+01
RMM:   8    -0.940085516717E+02    0.98537E+00   -0.90897E-01  9305   0.174E+00    0.113E+01
RMM:   9    -0.942805000916E+02   -0.27195E+00   -0.78750E-01  9359   0.124E+00    0.949E+00
RMM:  10    -0.932906129546E+02    0.98989E+00   -0.23880E+00  8376   0.193E+00    0.387E+00
RMM:  11    -0.933275141821E+02   -0.36901E-01   -0.59046E-01  9429   0.110E+00    0.339E+00
RMM:  12    -0.933226960778E+02    0.48181E-02   -0.20212E-01  9697   0.670E-01    0.332E+00
RMM:  13    -0.933503724043E+02   -0.27676E-01   -0.15499E-01  9568   0.511E-01    0.376E+00
RMM:  14    -0.932419034028E+02    0.10847E+00   -0.26013E-01  8217   0.761E-01    0.127E+00
RMM:  15    -0.932421661618E+02   -0.26276E-03   -0.65765E-02  9393   0.405E-01    0.848E-01
RMM:  16    -0.932479755826E+02   -0.58094E-02   -0.31956E-02  9133   0.247E-01    0.919E-01
RMM:  17    -0.932502720471E+02   -0.22965E-02   -0.17185E-02  9014   0.198E-01    0.863E-01
RMM:  18    -0.932461830843E+02    0.40890E-02   -0.15842E-02  9144   0.187E-01    0.631E-01
RMM:  19    -0.932457154616E+02    0.46762E-03   -0.12183E-02  8821   0.138E-01    0.423E-01
RMM:  20    -0.932464624317E+02   -0.74697E-03   -0.53728E-03  7948   0.989E-02    0.435E-01
RMM:  21    -0.932464156037E+02    0.46828E-04   -0.44673E-03  7769   0.830E-02    0.381E-01
RMM:  22    -0.932459193271E+02    0.49628E-03   -0.39112E-03  7841   0.851E-02    0.224E-01
RMM:  23    -0.932462021939E+02   -0.28287E-03   -0.41210E-03  7823   0.836E-02    0.122E-01
RMM:  24    -0.932463640072E+02   -0.16181E-03   -0.12789E-03  7014   0.526E-02    0.108E-01
RMM:  25    -0.932464926491E+02   -0.12864E-03   -0.93280E-04  6422   0.400E-02    0.108E-01
RMM:  26    -0.932465814122E+02   -0.88763E-04   -0.58402E-04  5687   0.311E-02    0.108E-01
RMM:  27    -0.932466648223E+02   -0.83410E-04   -0.41057E-04  5771   0.287E-02    0.592E-02
RMM:  28    -0.932467102286E+02   -0.45406E-04   -0.29685E-04  5032   0.215E-02    0.528E-02
RMM:  29    -0.932467300069E+02   -0.19778E-04   -0.18972E-04  4584   0.167E-02    0.516E-02
RMM:  30    -0.932467440828E+02   -0.14076E-04   -0.14007E-04  4338   0.138E-02    0.530E-02
RMM:  31    -0.932467660546E+02   -0.21972E-04   -0.99077E-05  4456   0.127E-02    0.414E-02
RMM:  32    -0.932467760893E+02   -0.10035E-04   -0.64899E-05  4006   0.106E-02    0.320E-02
RMM:  33    -0.932467828728E+02   -0.67835E-05   -0.45545E-05  3956   0.935E-03
   3 F= -.96387250E+02 E0= -.96383772E+02  d E =-.368409E+01
       N       E                     dE             d eps       ncg     rms          rms(c)
DAV:   1    -0.936544016939E+02   -0.40763E+00   -0.21748E+01  6200   0.841E+00    0.578E+00
RMM:   2    -0.937450004092E+02   -0.90599E-01   -0.89707E-01  6240   0.176E+00    0.329E+00
RMM:   3    -0.942047066772E+02   -0.45971E+00   -0.39160E-01  6544   0.106E+00    0.492E+00
RMM:   4    -0.937276755178E+02    0.47703E+00   -0.14434E-01  6318   0.697E-01    0.805E-01
RMM:   5    -0.937342021332E+02   -0.65266E-02   -0.44606E-02  7586   0.358E-01    0.460E-01
RMM:   6    -0.937303588942E+02    0.38432E-02   -0.82996E-03  7643   0.181E-01    0.197E-01
RMM:   7    -0.937302660998E+02    0.92794E-04   -0.38228E-03  7760   0.107E-01    0.106E-01
RMM:   8    -0.937304520253E+02   -0.18593E-03   -0.18369E-03  7290   0.652E-02    0.595E-02
RMM:   9    -0.937305617811E+02   -0.10976E-03   -0.92687E-04  6367   0.466E-02    0.200E-02
RMM:  10    -0.937306351934E+02   -0.73412E-04   -0.58998E-04  5846   0.341E-02    0.140E-02
RMM:  11    -0.937306906831E+02   -0.55490E-04   -0.36366E-04  5479   0.255E-02    0.802E-03
RMM:  12    -0.937307413577E+02   -0.50675E-04   -0.22452E-04  5228   0.210E-02    0.439E-03
RMM:  13    -0.937307659560E+02   -0.24598E-04   -0.15247E-04  4830   0.160E-02    0.384E-03
RMM:  14    -0.937307915708E+02   -0.25615E-04   -0.10103E-04  4561   0.129E-02    0.159E-03
RMM:  15    -0.937308059271E+02   -0.14356E-04   -0.68292E-05  4368   0.109E-02    0.940E-04
RMM:  16    -0.937308147339E+02   -0.88068E-05   -0.44674E-05  3610   0.873E-03
   4 F= -.96867397E+02 E0= -.96863263E+02  d E =-.416424E+01
       N       E                     dE             d eps       ncg     rms          rms(c)
DAV:   1    -0.937841430504E+02   -0.53337E-01   -0.50665E+01  5808   0.129E+01    0.129E+01
RMM:   2    -0.939974289409E+02   -0.21329E+00   -0.20151E+00  6217   0.279E+00    0.695E+00
RMM:   3    -0.957253170458E+02   -0.17279E+01   -0.12622E+00  6596   0.187E+00    0.831E+00
RMM:   4    -0.939297873221E+02    0.17955E+01   -0.47499E-01  6365   0.126E+00    0.132E+00
RMM:   5    -0.939504129397E+02   -0.20626E-01   -0.10007E-01  6947   0.583E-01    0.651E-01
RMM:   6    -0.939443195135E+02    0.60934E-02   -0.19907E-02  7362   0.300E-01    0.358E-01
RMM:   7    -0.939442649230E+02    0.54591E-04   -0.87431E-03  7625   0.173E-01    0.203E-01
RMM:   8    -0.939447478681E+02   -0.48295E-03   -0.44765E-03  8065   0.104E-01    0.108E-01
RMM:   9    -0.939449224925E+02   -0.17462E-03   -0.19962E-03  6347   0.680E-02    0.330E-02
RMM:  10    -0.939450799380E+02   -0.15745E-03   -0.13460E-03  5899   0.484E-02    0.240E-02
RMM:  11    -0.939451808468E+02   -0.10091E-03   -0.80150E-04  5585   0.359E-02    0.196E-02
RMM:  12    -0.939452322760E+02   -0.51429E-04   -0.50493E-04  5298   0.276E-02    0.258E-02
RMM:  13    -0.939452843939E+02   -0.52118E-04   -0.35035E-04  5256   0.219E-02    0.335E-02
RMM:  14    -0.939453249235E+02   -0.40530E-04   -0.20309E-04  5005   0.178E-02    0.442E-02
RMM:  15    -0.939453741956E+02   -0.49272E-04   -0.16293E-04  5026   0.156E-02    0.582E-02
RMM:  16    -0.939454272648E+02   -0.53069E-04   -0.98654E-05  4966   0.156E-02    0.948E-02
RMM:  17    -0.939454571737E+02   -0.29909E-04   -0.90358E-05  4772   0.126E-02    0.120E-01
RMM:  18    -0.939454559819E+02    0.11919E-05   -0.47438E-05  4058   0.969E-03
   5 F= -.97076677E+02 E0= -.97072066E+02  d E =-.437352E+01
       N       E                     dE             d eps       ncg     rms          rms(c)
DAV:   1    -0.939519613662E+02   -0.65042E-02   -0.37671E+00  5832   0.358E+00    0.410E+00
RMM:   2    -0.939720181647E+02   -0.20057E-01   -0.18750E-01  6045   0.799E-01    0.230E+00
RMM:   3    -0.941701665325E+02   -0.19815E+00   -0.12656E-01  6366   0.561E-01    0.260E+00
RMM:   4    -0.939720641989E+02    0.19810E+00   -0.39689E-02  6242   0.411E-01    0.624E-01
RMM:   5    -0.939652191864E+02    0.68450E-02   -0.21739E-02  6752   0.223E-01    0.188E-01
RMM:   6    -0.939655335044E+02   -0.31432E-03   -0.28759E-03  7319   0.101E-01    0.115E-01
RMM:   7    -0.939655807125E+02   -0.47208E-04   -0.11331E-03  6053   0.556E-02    0.417E-02
RMM:   8    -0.939656304001E+02   -0.49688E-04   -0.47320E-04  5640   0.353E-02    0.243E-02
RMM:   9    -0.939656649011E+02   -0.34501E-04   -0.25139E-04  5507   0.243E-02    0.137E-02
RMM:  10    -0.939656820708E+02   -0.17170E-04   -0.13976E-04  5123   0.172E-02    0.915E-03
RMM:  11    -0.939656982033E+02   -0.16132E-04   -0.88402E-05  4866   0.135E-02    0.537E-03
RMM:  12    -0.939657067802E+02   -0.85769E-05   -0.55609E-05  4415   0.106E-02
   6 F= -.97098307E+02 E0= -.97093794E+02  d E =-.439515E+01
       N       E                     dE             d eps       ncg     rms          rms(c)
DAV:   1    -0.871036407939E+02    0.68621E+01   -0.10429E+03  5752   0.626E+01    0.244E+01
RMM:   2    -0.930675238955E+02   -0.59639E+01   -0.69618E+01  6335   0.150E+01    0.110E+01
RMM:   3    -0.964802847026E+02   -0.34128E+01   -0.13924E+01  6954   0.762E+00    0.129E+01
RMM:   4    -0.935503283769E+02    0.29300E+01   -0.38029E+00  7577   0.389E+00    0.855E+00
RMM:   5    -0.933014584598E+02    0.24887E+00   -0.10240E+00  9088   0.205E+00    0.549E+00
RMM:   6    -0.933426820089E+02   -0.41224E-01   -0.10746E+00  8397   0.159E+00    0.365E+00
RMM:   7    -0.932526148688E+02    0.90067E-01   -0.23152E-01  8665   0.902E-01    0.263E+00
RMM:   8    -0.932352925152E+02    0.17322E-01   -0.14936E-01  9121   0.601E-01    0.138E+00
RMM:   9    -0.932401551638E+02   -0.48626E-02   -0.13297E-01  9223   0.472E-01    0.461E-01
RMM:  10    -0.932385643212E+02    0.15908E-02   -0.37657E-02  9260   0.302E-01    0.200E-01
RMM:  11    -0.932412289394E+02   -0.26646E-02   -0.26892E-02  9184   0.231E-01    0.156E-01
RMM:  12    -0.932434113756E+02   -0.21824E-02   -0.14177E-02  8978   0.169E-01    0.174E-01
RMM:  13    -0.932441100984E+02   -0.69872E-03   -0.82046E-03  8619   0.128E-01    0.680E-02
RMM:  14    -0.932449339854E+02   -0.82389E-03   -0.53308E-03  8443   0.103E-01    0.355E-02
RMM:  15    -0.932456048095E+02   -0.67082E-03   -0.40639E-03  8148   0.843E-02    0.276E-02
RMM:  16    -0.932459422005E+02   -0.33739E-03   -0.21126E-03  7613   0.639E-02    0.156E-02
RMM:  17    -0.932462276305E+02   -0.28543E-03   -0.15476E-03  7187   0.507E-02    0.894E-03
RMM:  18    -0.932463649850E+02   -0.13735E-03   -0.98391E-04  6643   0.397E-02    0.968E-03
RMM:  19    -0.932464445074E+02   -0.79522E-04   -0.61508E-04  6135   0.317E-02    0.881E-03
RMM:  20    -0.932464890997E+02   -0.44592E-04   -0.42314E-04  5452   0.253E-02    0.101E-02
RMM:  21    -0.932465191716E+02   -0.30072E-04   -0.28636E-04  5041   0.204E-02    0.130E-02
RMM:  22    -0.932465402603E+02   -0.21089E-04   -0.19939E-04  4770   0.168E-02    0.157E-02
RMM:  23    -0.932465534967E+02   -0.13236E-04   -0.13338E-04  4438   0.138E-02    0.198E-02
RMM:  24    -0.932465622872E+02   -0.87905E-05   -0.83905E-05  4470   0.120E-02
   7 F= -.96447684E+02 E0= -.96444371E+02  d E =0.650623E+00
       N       E                     dE             d eps       ncg     rms          rms(c)
DAV:   1    -0.935386584313E+02   -0.29210E+00   -0.25107E+01  5888   0.102E+01    0.256E+00
RMM:   2    -0.935977616470E+02   -0.59103E-01   -0.10496E+00  6836   0.221E+00    0.114E+00
RMM:   3    -0.936143313342E+02   -0.16570E-01   -0.20760E-01  8839   0.104E+00    0.718E-01
RMM:   4    -0.936188630758E+02   -0.45317E-02   -0.42479E-02  9360   0.422E-01    0.545E-01
RMM:   5    -0.936233183321E+02   -0.44553E-02   -0.13583E-02  8514   0.225E-01    0.533E-01
RMM:   6    -0.936188669806E+02    0.44514E-02   -0.60270E-03  8531   0.156E-01    0.102E-01
RMM:   7    -0.936191223860E+02   -0.25541E-03   -0.34936E-03  8937   0.988E-02    0.572E-02
RMM:   8    -0.936192992812E+02   -0.17690E-03   -0.17391E-03  8432   0.679E-02    0.434E-02
RMM:   9    -0.936194237494E+02   -0.12447E-03   -0.98506E-04  7906   0.499E-02    0.401E-02
RMM:  10    -0.936195456275E+02   -0.12188E-03   -0.60010E-04  7316   0.386E-02    0.193E-02
RMM:  11    -0.936196319508E+02   -0.86323E-04   -0.38102E-04  6596   0.297E-02    0.582E-03
RMM:  12    -0.936197180874E+02   -0.86137E-04   -0.23377E-04  6010   0.230E-02    0.536E-03
RMM:  13    -0.936197919682E+02   -0.73881E-04   -0.15471E-04  5391   0.182E-02    0.224E-03
RMM:  14    -0.936198428330E+02   -0.50865E-04   -0.96272E-05  4937   0.147E-02    0.184E-03
RMM:  15    -0.936198737446E+02   -0.30912E-04   -0.62981E-05  4495   0.119E-02    0.122E-03
RMM:  16    -0.936198867245E+02   -0.12980E-04   -0.40330E-05  4062   0.990E-03    0.132E-03
RMM:  17    -0.936198900834E+02   -0.33589E-05   -0.26077E-05  3658   0.838E-03
   8 F= -.96814819E+02 E0= -.96811422E+02  d E =0.283488E+00
       N       E                     dE             d eps       ncg     rms          rms(c)
DAV:   1    -0.939336415800E+02   -0.31375E+00   -0.21469E+01  5448   0.969E+00    0.234E+00
RMM:   2    -0.939871628140E+02   -0.53521E-01   -0.90967E-01  6173   0.211E+00    0.116E+00
RMM:   3    -0.940013441997E+02   -0.14181E-01   -0.18352E-01  8241   0.960E-01    0.737E-01
RMM:   4    -0.940086501807E+02   -0.73060E-02   -0.36835E-02  8590   0.412E-01    0.606E-01
RMM:   5    -0.940046878043E+02    0.39624E-02   -0.12249E-02  7711   0.223E-01    0.433E-01
RMM:   6    -0.940035552149E+02    0.11326E-02   -0.61046E-03  8521   0.144E-01    0.102E-01
RMM:   7    -0.940036894625E+02   -0.13425E-03   -0.29967E-03  8071   0.882E-02    0.526E-02
RMM:   8    -0.940038484920E+02   -0.15903E-03   -0.15532E-03  7402   0.585E-02    0.431E-02
RMM:   9    -0.940039662645E+02   -0.11777E-03   -0.85712E-04  6677   0.417E-02    0.320E-02
RMM:  10    -0.940040805010E+02   -0.11424E-03   -0.49920E-04  6241   0.320E-02    0.109E-02
RMM:  11    -0.940041617974E+02   -0.81296E-04   -0.31010E-04  5697   0.241E-02    0.709E-03
RMM:  12    -0.940042446477E+02   -0.82850E-04   -0.19094E-04  5263   0.184E-02    0.345E-03
RMM:  13    -0.940043325482E+02   -0.87900E-04   -0.13110E-04  4979   0.149E-02    0.307E-03
RMM:  14    -0.940043604133E+02   -0.27865E-04   -0.75416E-05  4391   0.116E-02    0.123E-03
RMM:  15    -0.940043897726E+02   -0.29359E-04   -0.52008E-05  3907   0.970E-03    0.117E-03
RMM:  16    -0.940044017993E+02   -0.12027E-04   -0.34206E-05  3530   0.816E-03    0.153E-03
RMM:  17    -0.940044055015E+02   -0.37022E-05   -0.20939E-05  3076   0.710E-03
   9 F= -.97190459E+02 E0= -.97187258E+02  d E =-.921516E-01
       N       E                     dE             d eps       ncg     rms          rms(c)
DAV:   1    -0.943936230528E+02   -0.38922E+00   -0.12968E+02  5440   0.221E+01    0.656E+00
RMM:   2    -0.948730970280E+02   -0.47947E+00   -0.54881E+00  6282   0.493E+00    0.335E+00
RMM:   3    -0.952645781795E+02   -0.39148E+00   -0.15293E+00  7264   0.250E+00    0.377E+00
RMM:   4    -0.949380824043E+02    0.32650E+00   -0.26006E-01  7254   0.119E+00    0.193E+00
RMM:   5    -0.949485303735E+02   -0.10448E-01   -0.10523E-01  8091   0.629E-01    0.110E+00
RMM:   6    -0.949373678489E+02    0.11163E-01   -0.41014E-02  7431   0.389E-01    0.267E-01
RMM:   7    -0.949376952281E+02   -0.32738E-03   -0.17062E-02  9020   0.227E-01    0.153E-01
RMM:   8    -0.949387332404E+02   -0.10380E-02   -0.10015E-02  8582   0.139E-01    0.102E-01
RMM:   9    -0.949391577330E+02   -0.42449E-03   -0.41225E-03  7318   0.922E-02    0.489E-02
RMM:  10    -0.949395715209E+02   -0.41379E-03   -0.28654E-03  6739   0.681E-02    0.265E-02
RMM:  11    -0.949398744047E+02   -0.30288E-03   -0.15225E-03  6373   0.523E-02    0.153E-02
RMM:  12    -0.949400339131E+02   -0.15951E-03   -0.97572E-04  5949   0.393E-02    0.115E-02
RMM:  13    -0.949402667926E+02   -0.23288E-03   -0.61342E-04  5649   0.310E-02    0.516E-03
RMM:  14    -0.949404620767E+02   -0.19528E-03   -0.45510E-04  5400   0.245E-02    0.426E-03
RMM:  15    -0.949405445569E+02   -0.82480E-04   -0.24369E-04  4895   0.190E-02    0.282E-03
RMM:  16    -0.949406054144E+02   -0.60857E-04   -0.17495E-04  4515   0.156E-02    0.382E-03
RMM:  17    -0.949406283310E+02   -0.22917E-04   -0.11581E-04  3907   0.126E-02    0.436E-03
RMM:  18    -0.949406484835E+02   -0.20153E-04   -0.76547E-05  3607   0.106E-02    0.402E-03
RMM:  19    -0.949406598959E+02   -0.11412E-04   -0.52980E-05  3373   0.918E-03    0.269E-03
RMM:  20    -0.949406658193E+02   -0.59234E-05   -0.37408E-05  3156   0.813E-03
  10 F= -.98087511E+02 E0= -.98084020E+02  d E =-.989204E+00
       N       E                     dE             d eps       ncg     rms          rms(c)
DAV:   1    -0.949133223806E+02    0.27338E-01   -0.36463E+01  5720   0.113E+01    0.437E+00
RMM:   2    -0.951285108234E+02   -0.21519E+00   -0.15686E+00  6654   0.236E+00    0.268E+00
RMM:   3    -0.951911503319E+02   -0.62640E-01   -0.45721E-01  7150   0.127E+00    0.283E+00
RMM:   4    -0.950186091597E+02    0.17254E+00   -0.82333E-02  7088   0.674E-01    0.116E+00
RMM:   5    -0.950156713682E+02    0.29378E-02   -0.28832E-02  8268   0.363E-01    0.637E-01
RMM:   6    -0.950124730296E+02    0.31983E-02   -0.11047E-02  8349   0.213E-01    0.148E-01
RMM:   7    -0.950125031895E+02   -0.30160E-04   -0.45967E-03  8747   0.122E-01    0.882E-02
RMM:   8    -0.950127285126E+02   -0.22532E-03   -0.22802E-03  7912   0.756E-02    0.554E-02
RMM:   9    -0.950128336417E+02   -0.10513E-03   -0.10931E-03  7274   0.525E-02    0.209E-02
RMM:  10    -0.950129184395E+02   -0.84798E-04   -0.67901E-04  6737   0.387E-02    0.100E-02
RMM:  11    -0.950129764651E+02   -0.58026E-04   -0.40488E-04  6179   0.294E-02    0.703E-03
RMM:  12    -0.950130221845E+02   -0.45719E-04   -0.25542E-04  5798   0.229E-02    0.419E-03
RMM:  13    -0.950130469037E+02   -0.24719E-04   -0.16565E-04  5164   0.178E-02    0.381E-03
RMM:  14    -0.950130712445E+02   -0.24341E-04   -0.10838E-04  4766   0.144E-02    0.188E-03
RMM:  15    -0.950130859043E+02   -0.14660E-04   -0.72507E-05  4242   0.117E-02    0.204E-03
RMM:  16    -0.950130953844E+02   -0.94801E-05   -0.46678E-05  3757   0.987E-03
  11 F= -.98152788E+02 E0= -.98148813E+02  d E =-.105448E+01
       N       E                     dE             d eps       ncg     rms          rms(c)
DAV:   1    -0.950360357536E+02   -0.22950E-01   -0.90536E+00  5744   0.562E+00    0.215E+00
RMM:   2    -0.950658832911E+02   -0.29848E-01   -0.37685E-01  6363   0.112E+00    0.126E+00
RMM:   3    -0.951058995988E+02   -0.40016E-01   -0.89881E-02  7232   0.605E-01    0.135E+00
RMM:   4    -0.950584007460E+02    0.47499E-01   -0.18240E-02  6923   0.334E-01    0.470E-01
RMM:   5    -0.950563730796E+02    0.20277E-02   -0.89313E-03  8146   0.188E-01    0.205E-01
RMM:   6    -0.950561493288E+02    0.22375E-03   -0.20276E-03  8180   0.999E-02    0.716E-02
RMM:   7    -0.950562462863E+02   -0.96957E-04   -0.12016E-03  7168   0.578E-02    0.322E-02
RMM:   8    -0.950562897150E+02   -0.43429E-04   -0.47304E-04  6510   0.369E-02    0.193E-02
RMM:   9    -0.950563217002E+02   -0.31985E-04   -0.28216E-04  5874   0.264E-02    0.881E-03
RMM:  10    -0.950563416256E+02   -0.19925E-04   -0.16069E-04  5306   0.200E-02    0.763E-03
RMM:  11    -0.950563561340E+02   -0.14508E-04   -0.96207E-05  4878   0.147E-02    0.347E-03
RMM:  12    -0.950563632174E+02   -0.70834E-05   -0.60908E-05  4535   0.118E-02
  12 F= -.98199537E+02 E0= -.98195821E+02  d E =-.110123E+01
       N       E                     dE             d eps       ncg     rms          rms(c)
DAV:   1    -0.950617526865E+02   -0.53966E-02   -0.42540E-01  5896   0.121E+00    0.455E-01
RMM:   2    -0.950633127702E+02   -0.15601E-02   -0.16895E-02  6216   0.245E-01    0.269E-01
RMM:   3    -0.950649077905E+02   -0.15950E-02   -0.43319E-03  6939   0.127E-01    0.293E-01
RMM:   4    -0.950628027610E+02    0.21050E-02   -0.85688E-04  6618   0.707E-02    0.104E-01
RMM:   5    -0.950627447268E+02    0.58034E-04   -0.35474E-04  5933   0.391E-02    0.509E-02
RMM:   6    -0.950627294066E+02    0.15320E-04   -0.92227E-05  5292   0.234E-02    0.135E-02
RMM:   7    -0.950627331956E+02   -0.37890E-05   -0.48371E-05  4569   0.139E-02
  13 F= -.98205149E+02 E0= -.98201377E+02  d E =-.110684E+01
       N       E                     dE             d eps       ncg     rms          rms(c)
DAV:   1    -0.945775095488E+02    0.48522E+00   -0.13594E+02  5440   0.249E+01    0.106E+01
RMM:   2    -0.950835599233E+02   -0.50605E+00   -0.56067E+00  6588   0.525E+00    0.579E+00
RMM:   3    -0.960417028111E+02   -0.95814E+00   -0.12543E+00  6948   0.265E+00    0.628E+00
RMM:   4    -0.950530761402E+02    0.98863E+00   -0.29920E-01  7109   0.143E+00    0.129E+00
RMM:   5    -0.950472256897E+02    0.58505E-02   -0.86271E-02  9083   0.722E-01    0.679E-01
RMM:   6    -0.950459092940E+02    0.13164E-02   -0.30015E-02  8636   0.361E-01    0.401E-01
RMM:   7    -0.950465184767E+02   -0.60918E-03   -0.13430E-02  8812   0.226E-01    0.225E-01
RMM:   8    -0.950471299978E+02   -0.61152E-03   -0.71429E-03  8857   0.149E-01    0.116E-01
RMM:   9    -0.950475238601E+02   -0.39386E-03   -0.42039E-03  8759   0.990E-02    0.393E-02
RMM:  10    -0.950477909918E+02   -0.26713E-03   -0.22717E-03  7957   0.726E-02    0.289E-02
RMM:  11    -0.950479963439E+02   -0.20535E-03   -0.15557E-03  7603   0.565E-02    0.115E-02
RMM:  12    -0.950481199640E+02   -0.12362E-03   -0.93068E-04  7093   0.438E-02    0.710E-03
RMM:  13    -0.950482028836E+02   -0.82920E-04   -0.66475E-04  6598   0.344E-02    0.669E-03
RMM:  14    -0.950482422193E+02   -0.39336E-04   -0.39618E-04  5916   0.274E-02    0.106E-02
RMM:  15    -0.950482653598E+02   -0.23141E-04   -0.29068E-04  5374   0.220E-02    0.191E-02
RMM:  16    -0.950482891489E+02   -0.23789E-04   -0.18226E-04  4867   0.179E-02    0.164E-02
RMM:  17    -0.950483043545E+02   -0.15206E-04   -0.12019E-04  4893   0.150E-02    0.127E-02
RMM:  18    -0.950483108405E+02   -0.64861E-05   -0.77771E-05  4164   0.122E-02
  14 F= -.98200732E+02 E0= -.98199143E+02  d E =0.441702E-02
       N       E                     dE             d eps       ncg     rms          rms(c)
DAV:   1    -0.951882830438E+02   -0.13998E+00   -0.28432E+01  5440   0.117E+01    0.420E+00
RMM:   2    -0.953012883990E+02   -0.11301E+00   -0.13350E+00  6231   0.253E+00    0.243E+00
RMM:   3    -0.954419334462E+02   -0.14065E+00   -0.35309E-01  7365   0.139E+00    0.215E+00
RMM:   4    -0.953117842711E+02    0.13015E+00   -0.65771E-02  7095   0.662E-01    0.913E-01
RMM:   5    -0.953128879571E+02   -0.11037E-02   -0.25782E-02  8275   0.346E-01    0.497E-01
RMM:   6    -0.953121588740E+02    0.72908E-03   -0.91778E-03  7886   0.194E-01    0.164E-01
RMM:   7    -0.953124915673E+02   -0.33269E-03   -0.45972E-03  8583   0.115E-01    0.589E-02
RMM:   8    -0.953127963550E+02   -0.30479E-03   -0.25025E-03  7078   0.730E-02    0.463E-02
RMM:   9    -0.953129901447E+02   -0.19379E-03   -0.14029E-03  6510   0.519E-02    0.229E-02
RMM:  10    -0.953131100791E+02   -0.11993E-03   -0.84076E-04  5920   0.387E-02    0.835E-03
RMM:  11    -0.953131796052E+02   -0.69526E-04   -0.51291E-04  5581   0.293E-02    0.742E-03
RMM:  12    -0.953132237795E+02   -0.44174E-04   -0.31301E-04  5186   0.224E-02    0.487E-03
RMM:  13    -0.953132567729E+02   -0.32993E-04   -0.20670E-04  5008   0.183E-02    0.552E-03
RMM:  14    -0.953132670733E+02   -0.10300E-04   -0.12702E-04  4478   0.143E-02    0.707E-03
RMM:  15    -0.953132772134E+02   -0.10140E-04   -0.84971E-05  3931   0.114E-02    0.795E-03
RMM:  16    -0.953132828263E+02   -0.56128E-05   -0.53387E-05  3316   0.961E-03
  15 F= -.98461102E+02 E0= -.98458394E+02  d E =-.255953E+00
       N       E                     dE             d eps       ncg     rms          rms(c)
DAV:   1    -0.951660281793E+02    0.14725E+00   -0.52226E+01  5440   0.172E+01    0.583E+00
RMM:   2    -0.953148467734E+02   -0.14882E+00   -0.17389E+00  6272   0.366E+00    0.333E+00
RMM:   3    -0.954636615375E+02   -0.14881E+00   -0.47716E-01  8175   0.191E+00    0.192E+00
RMM:   4    -0.953649197205E+02    0.98742E-01   -0.99866E-02  7842   0.802E-01    0.963E-01
RMM:   5    -0.953521935162E+02    0.12726E-01   -0.23542E-02  8605   0.404E-01    0.495E-01
RMM:   6    -0.953523220849E+02   -0.12857E-03   -0.99925E-03  8507   0.232E-01    0.233E-01
RMM:   7    -0.953522255566E+02    0.96528E-04   -0.39979E-03  8926   0.137E-01    0.865E-02
RMM:   8    -0.953524617163E+02   -0.23616E-03   -0.24511E-03  7800   0.928E-02    0.432E-02
RMM:   9    -0.953525833261E+02   -0.12161E-03   -0.10853E-03  7925   0.585E-02    0.262E-02
RMM:  10    -0.953526602567E+02   -0.76931E-04   -0.65134E-04  7010   0.416E-02    0.146E-02
RMM:  11    -0.953527130429E+02   -0.52786E-04   -0.39651E-04  6577   0.317E-02    0.693E-03
RMM:  12    -0.953527408903E+02   -0.27847E-04   -0.24680E-04  6067   0.244E-02    0.417E-03
RMM:  13    -0.953527588739E+02   -0.17984E-04   -0.16201E-04  5441   0.187E-02    0.358E-03
RMM:  14    -0.953527696955E+02   -0.10822E-04   -0.10172E-04  4937   0.150E-02    0.324E-03
RMM:  15    -0.953527769085E+02   -0.72129E-05   -0.67673E-05  4537   0.123E-02
  16 F= -.98503994E+02 E0= -.98501672E+02  d E =-.428918E-01
       N       E                     dE             d eps       ncg     rms          rms(c)
DAV:   1    -0.953791210533E+02   -0.26351E-01   -0.92940E+00  5520   0.722E+00    0.225E+00
RMM:   2    -0.954011694150E+02   -0.22048E-01   -0.27745E-01  6161   0.148E+00    0.127E+00
RMM:   3    -0.954127290591E+02   -0.11560E-01   -0.68625E-02  8084   0.757E-01    0.508E-01
RMM:   4    -0.954122926041E+02    0.43646E-03   -0.13427E-02  7643   0.300E-01    0.384E-01
RMM:   5    -0.954069652866E+02    0.53273E-02   -0.28385E-03  8031   0.150E-01    0.127E-01
RMM:   6    -0.954070830985E+02   -0.11781E-03   -0.13569E-03  8217   0.795E-02    0.596E-02
RMM:   7    -0.954070984378E+02   -0.15339E-04   -0.45478E-04  6643   0.431E-02    0.277E-02
RMM:   8    -0.954071247513E+02   -0.26314E-04   -0.25094E-04  5781   0.280E-02    0.153E-02
RMM:   9    -0.954071400929E+02   -0.15342E-04   -0.12994E-04  5207   0.190E-02    0.818E-03
RMM:  10    -0.954071490897E+02   -0.89968E-05   -0.72788E-05  4769   0.141E-02
  17 F= -.98556877E+02 E0= -.98554346E+02  d E =-.957745E-01
       N       E                     dE             d eps       ncg     rms          rms(c)
DAV:   1    -0.954302342448E+02   -0.23094E-01   -0.26937E+01  5528   0.131E+01    0.200E+00
RMM:   2    -0.954933985013E+02   -0.63164E-01   -0.66641E-01  6264   0.280E+00    0.105E+00
RMM:   3    -0.955525723710E+02   -0.59174E-01   -0.25684E-01  8263   0.168E+00    0.123E+00
RMM:   4    -0.955138012659E+02    0.38771E-01   -0.30524E-02  8236   0.556E-01    0.508E-01
RMM:   5    -0.955144254468E+02   -0.62418E-03   -0.72169E-03  8824   0.235E-01    0.339E-01
RMM:   6    -0.955145226704E+02   -0.97224E-04   -0.27442E-03  7934   0.137E-01    0.119E-01
RMM:   7    -0.955144363214E+02    0.86349E-04   -0.11817E-03  8219   0.845E-02    0.298E-02
RMM:   8    -0.955145091288E+02   -0.72807E-04   -0.78889E-04  7258   0.538E-02    0.182E-02
RMM:   9    -0.955145426872E+02   -0.33558E-04   -0.35795E-04  7015   0.336E-02    0.182E-02
RMM:  10    -0.955145619750E+02   -0.19288E-04   -0.19888E-04  6079   0.236E-02    0.160E-02
RMM:  11    -0.955145747135E+02   -0.12739E-04   -0.13207E-04  5548   0.184E-02    0.930E-03
RMM:  12    -0.955145836268E+02   -0.89133E-05   -0.83512E-05  5047   0.143E-02
  18 F= -.98667214E+02 E0= -.98664721E+02  d E =-.110337E+00
       N       E                     dE             d eps       ncg     rms          rms(c)
DAV:   1    -0.954071641961E+02    0.10741E+00   -0.46763E+01  5488   0.173E+01    0.252E+00
RMM:   2    -0.955212397811E+02   -0.11408E+00   -0.12100E+00  6271   0.372E+00    0.130E+00
RMM:   3    -0.956145209072E+02   -0.93281E-01   -0.47086E-01  8272   0.232E+00    0.148E+00
RMM:   4    -0.955609172322E+02    0.53604E-01   -0.58324E-02  8423   0.775E-01    0.707E-01
RMM:   5    -0.955621642066E+02   -0.12470E-02   -0.12853E-02  8910   0.316E-01    0.498E-01
RMM:   6    -0.955623085377E+02   -0.14433E-03   -0.53002E-03  8096   0.191E-01    0.145E-01
RMM:   7    -0.955621929216E+02    0.11562E-03   -0.22490E-03  8545   0.120E-01    0.570E-02
RMM:   8    -0.955623255680E+02   -0.13265E-03   -0.15734E-03  7804   0.784E-02    0.266E-02
RMM:   9    -0.955623929008E+02   -0.67333E-04   -0.72181E-04  7763   0.479E-02    0.278E-02
RMM:  10    -0.955624314640E+02   -0.38563E-04   -0.39591E-04  6728   0.337E-02    0.183E-02
RMM:  11    -0.955624595766E+02   -0.28113E-04   -0.26746E-04  6344   0.259E-02    0.890E-03
RMM:  12    -0.955624773610E+02   -0.17784E-04   -0.17386E-04  5731   0.199E-02    0.341E-03
RMM:  13    -0.955624896865E+02   -0.12325E-04   -0.12113E-04  5130   0.156E-02    0.327E-03
RMM:  14    -0.955624978695E+02   -0.81830E-05   -0.82310E-05  4683   0.128E-02
  19 F= -.98719203E+02 E0= -.98716813E+02  d E =-.162326E+00
       N       E                     dE             d eps       ncg     rms          rms(c)
DAV:   1    -0.955199879805E+02    0.42502E-01   -0.10189E+01  5768   0.838E+00    0.997E-01
RMM:   2    -0.955569223046E+02   -0.36934E-01   -0.43158E-01  6139   0.188E+00    0.540E-01
RMM:   3    -0.955636614937E+02   -0.67392E-02   -0.95309E-02  8383   0.988E-01    0.320E-01
RMM:   4    -0.955656536381E+02   -0.19921E-02   -0.16944E-02  8672   0.365E-01    0.269E-01
RMM:   5    -0.955650120200E+02    0.64162E-03   -0.38544E-03  8731   0.153E-01    0.197E-01
RMM:   6    -0.955649328650E+02    0.79155E-04   -0.18916E-03  8278   0.901E-02    0.716E-02
RMM:   7    -0.955650021003E+02   -0.69235E-04   -0.88317E-04  7410   0.580E-02    0.309E-02
RMM:   8    -0.955650529772E+02   -0.50877E-04   -0.48259E-04  6598   0.395E-02    0.157E-02
RMM:   9    -0.955650896501E+02   -0.36673E-04   -0.26889E-04  5995   0.270E-02    0.121E-02
RMM:  10    -0.955651143126E+02   -0.24663E-04   -0.14792E-04  5404   0.194E-02    0.714E-03
RMM:  11    -0.955651343296E+02   -0.20017E-04   -0.87773E-05  4994   0.150E-02    0.316E-03
RMM:  12    -0.955651441280E+02   -0.97984E-05   -0.51942E-05  4515   0.116E-02
  20 F= -.98721769E+02 E0= -.98719051E+02  d E =-.256594E-02
       N       E                     dE             d eps       ncg     rms          rms(c)
DAV:   1    -0.955660140472E+02   -0.87972E-03   -0.23676E+00  5776   0.391E+00    0.488E-01
RMM:   2    -0.955732410553E+02   -0.72270E-02   -0.86754E-02  6167   0.847E-01    0.259E-01
RMM:   3    -0.955745441444E+02   -0.13031E-02   -0.18850E-02  8084   0.434E-01    0.135E-01
RMM:   4    -0.955747939544E+02   -0.24981E-03   -0.32618E-03  8128   0.161E-01    0.889E-02
RMM:   5    -0.955748921829E+02   -0.98228E-04   -0.72926E-04  7922   0.667E-02    0.817E-02
RMM:   6    -0.955748031061E+02    0.89077E-04   -0.31784E-04  6730   0.380E-02    0.294E-02
RMM:   7    -0.955748122758E+02   -0.91697E-05   -0.13992E-04  5811   0.238E-02    0.116E-02
RMM:   8    -0.955748200886E+02   -0.78128E-05   -0.79613E-05  5064   0.164E-02
  21 F= -.98731474E+02 E0= -.98728917E+02  d E =-.122709E-01
       N       E                     dE             d eps       ncg     rms          rms(c)
DAV:   1    -0.955810485510E+02   -0.62363E-02   -0.41170E+00  5464   0.521E+00    0.864E-01
RMM:   2    -0.955961660175E+02   -0.15117E-01   -0.17877E-01  6383   0.116E+00    0.466E-01
RMM:   3    -0.956000689076E+02   -0.39029E-02   -0.35737E-02  8526   0.602E-01    0.240E-01
RMM:   4    -0.956012007613E+02   -0.11319E-02   -0.62702E-03  8452   0.232E-01    0.230E-01
RMM:   5    -0.955999517739E+02    0.12490E-02   -0.16979E-03  8261   0.105E-01    0.881E-02
RMM:   6    -0.956000363187E+02   -0.84545E-04   -0.84245E-04  7735   0.592E-02    0.428E-02
RMM:   7    -0.956000549914E+02   -0.18673E-04   -0.34084E-04  6749   0.353E-02    0.190E-02
RMM:   8    -0.956000779017E+02   -0.22910E-04   -0.19175E-04  6071   0.235E-02    0.816E-03
RMM:   9    -0.956000886663E+02   -0.10765E-04   -0.10008E-04  5142   0.166E-02    0.472E-03
RMM:  10    -0.956000957596E+02   -0.70933E-05   -0.57293E-05  4603   0.124E-02
  22 F= -.98756403E+02 E0= -.98753785E+02  d E =-.249293E-01
       N       E                     dE             d eps       ncg     rms          rms(c)
DAV:   1    -0.955523062329E+02    0.47782E-01   -0.14176E+01  5440   0.966E+00    0.166E+00
RMM:   2    -0.956049050106E+02   -0.52599E-01   -0.61879E-01  6470   0.219E+00    0.885E-01
RMM:   3    -0.956186697719E+02   -0.13765E-01   -0.12675E-01  8610   0.116E+00    0.448E-01
RMM:   4    -0.956225738224E+02   -0.39041E-02   -0.22931E-02  8487   0.439E-01    0.446E-01
RMM:   5    -0.956183001085E+02    0.42737E-02   -0.60570E-03  8638   0.196E-01    0.170E-01
RMM:   6    -0.956185957093E+02   -0.29560E-03   -0.30517E-03  8650   0.111E-01    0.737E-02
RMM:   7    -0.956186928485E+02   -0.97139E-04   -0.12432E-03  7939   0.658E-02    0.377E-02
RMM:   8    -0.956187698996E+02   -0.77051E-04   -0.69435E-04  7304   0.441E-02    0.175E-02
RMM:   9    -0.956188097604E+02   -0.39861E-04   -0.37749E-04  6682   0.314E-02    0.890E-03
RMM:  10    -0.956188377783E+02   -0.28018E-04   -0.22879E-04  6009   0.232E-02    0.599E-03
RMM:  11    -0.956188559858E+02   -0.18208E-04   -0.13807E-04  5430   0.182E-02    0.313E-03
RMM:  12    -0.956188675618E+02   -0.11576E-04   -0.90003E-05  4909   0.144E-02    0.235E-03
RMM:  13    -0.956188751642E+02   -0.76024E-05   -0.56781E-05  4573   0.116E-02
  23 F= -.98774599E+02 E0= -.98771842E+02  d E =-.431256E-01
       N       E                     dE             d eps       ncg     rms          rms(c)
DAV:   1    -0.956170475777E+02    0.18200E-02   -0.56985E+00  5584   0.590E+00    0.677E-01
RMM:   2    -0.956317461291E+02   -0.14699E-01   -0.17257E-01  6322   0.122E+00    0.306E-01
RMM:   3    -0.956363688347E+02   -0.46227E-02   -0.43292E-02  8281   0.641E-01    0.242E-01
RMM:   4    -0.956364962088E+02   -0.12737E-03   -0.71857E-03  8428   0.239E-01    0.195E-01
RMM:   5    -0.956364033723E+02    0.92836E-04   -0.18295E-03  8268   0.103E-01    0.138E-01
RMM:   6    -0.956364911174E+02   -0.87745E-04   -0.10023E-03  7534   0.641E-02    0.422E-02
RMM:   7    -0.956365170716E+02   -0.25954E-04   -0.37643E-04  6648   0.397E-02    0.254E-02
RMM:   8    -0.956365394872E+02   -0.22416E-04   -0.22426E-04  6063   0.259E-02    0.928E-03
RMM:   9    -0.956365521607E+02   -0.12674E-04   -0.12029E-04  5226   0.179E-02    0.748E-03
RMM:  10    -0.956365609393E+02   -0.87786E-05   -0.67228E-05  4735   0.132E-02
  24 F= -.98791273E+02 E0= -.98788584E+02  d E =-.166743E-01
       N       E                     dE             d eps       ncg     rms          rms(c)
DAV:   1    -0.956317305932E+02    0.48216E-02   -0.25959E+00  5736   0.399E+00    0.456E-01
RMM:   2    -0.956383745889E+02   -0.66440E-02   -0.78757E-02  6252   0.818E-01    0.209E-01
RMM:   3    -0.956405526405E+02   -0.21781E-02   -0.19418E-02  8047   0.429E-01    0.169E-01
RMM:   4    -0.956404999413E+02    0.52699E-04   -0.32193E-03  8202   0.160E-01    0.130E-01
RMM:   5    -0.956404653183E+02    0.34623E-04   -0.84446E-04  7941   0.697E-02    0.896E-02
RMM:   6    -0.956405138240E+02   -0.48506E-04   -0.46544E-04  6714   0.431E-02    0.281E-02
RMM:   7    -0.956405261061E+02   -0.12282E-04   -0.18335E-04  5849   0.272E-02    0.145E-02
RMM:   8    -0.956405386478E+02   -0.12542E-04   -0.10946E-04  5138   0.182E-02    0.595E-03
RMM:   9    -0.956405446720E+02   -0.60242E-05   -0.54863E-05  4457   0.125E-02
  25 F= -.98794566E+02 E0= -.98791921E+02  d E =-.199665E-01
       N       E                     dE             d eps       ncg     rms          rms(c)
DAV:   1    -0.956461177035E+02   -0.55791E-02   -0.59480E-01  5984   0.199E+00    0.196E-01
RMM:   2    -0.956475771543E+02   -0.14595E-02   -0.16972E-02  6029   0.415E-01    0.935E-02
RMM:   3    -0.956480536439E+02   -0.47649E-03   -0.47054E-03  7937   0.224E-01    0.684E-02
RMM:   4    -0.956481372659E+02   -0.83622E-04   -0.67512E-04  7699   0.779E-02    0.591E-02
RMM:   5    -0.956481251271E+02    0.12139E-04   -0.18610E-04  6671   0.351E-02    0.462E-02
RMM:   6    -0.956481304116E+02   -0.52846E-05   -0.99247E-05  5410   0.213E-02
  26 F= -.98801834E+02 E0= -.98799251E+02  d E =-.726779E-02
       N       E                     dE             d eps       ncg     rms          rms(c)
DAV:   1    -0.956497309707E+02   -0.16058E-02   -0.53559E+00  5440   0.597E+00    0.596E-01
RMM:   2    -0.956628930626E+02   -0.13162E-01   -0.15217E-01  6246   0.126E+00    0.282E-01
RMM:   3    -0.956671054372E+02   -0.42124E-02   -0.42969E-02  8195   0.678E-01    0.206E-01
RMM:   4    -0.956678090205E+02   -0.70358E-03   -0.58604E-03  8231   0.233E-01    0.169E-01
RMM:   5    -0.956678056275E+02    0.33930E-05   -0.14837E-03  8292   0.961E-02    0.146E-01
RMM:   6    -0.956677601830E+02    0.45444E-04   -0.68832E-04  7412   0.567E-02    0.393E-02
RMM:   7    -0.956678019860E+02   -0.41803E-04   -0.32629E-04  6354   0.370E-02    0.261E-02
RMM:   8    -0.956678147163E+02   -0.12730E-04   -0.15519E-04  5754   0.233E-02    0.123E-02
RMM:   9    -0.956678235390E+02   -0.88227E-05   -0.90233E-05  5143   0.161E-02
  27 F= -.98820553E+02 E0= -.98818150E+02  d E =-.259868E-01
       N       E                     dE             d eps       ncg     rms          rms(c)
DAV:   1    -0.956198867023E+02    0.47928E-01   -0.21428E+01  5456   0.120E+01    0.121E+00
RMM:   2    -0.956736548936E+02   -0.53768E-01   -0.61624E-01  6302   0.256E+00    0.570E-01
RMM:   3    -0.956906063812E+02   -0.16951E-01   -0.17841E-01  8406   0.139E+00    0.409E-01
RMM:   4    -0.956926810951E+02   -0.20747E-02   -0.23831E-02  8386   0.472E-01    0.316E-01
RMM:   5    -0.956944204275E+02   -0.17393E-02   -0.59904E-03  8567   0.192E-01    0.268E-01
RMM:   6    -0.956933417706E+02    0.10787E-02   -0.23972E-03  8104   0.109E-01    0.728E-02
RMM:   7    -0.956934794549E+02   -0.13768E-03   -0.12415E-03  7503   0.731E-02    0.451E-02
RMM:   8    -0.956935343787E+02   -0.54924E-04   -0.62662E-04  6998   0.469E-02    0.199E-02
RMM:   9    -0.956935705509E+02   -0.36172E-04   -0.34433E-04  6310   0.319E-02    0.147E-02
RMM:  10    -0.956936000689E+02   -0.29518E-04   -0.19904E-04  5840   0.233E-02    0.770E-03
RMM:  11    -0.956936161995E+02   -0.16131E-04   -0.12082E-04  5378   0.177E-02    0.456E-03
RMM:  12    -0.956936301320E+02   -0.13933E-04   -0.74050E-05  4898   0.132E-02    0.192E-03
RMM:  13    -0.956936403386E+02   -0.10207E-04   -0.47907E-05  4579   0.110E-02    0.155E-03
RMM:  14    -0.956936469239E+02   -0.65853E-05   -0.31435E-05  4028   0.900E-03
  28 F= -.98844330E+02 E0= -.98842271E+02  d E =-.497638E-01
       N       E                     dE             d eps       ncg     rms          rms(c)
DAV:   1    -0.953797520944E+02    0.31389E+00   -0.85797E+01  5448   0.242E+01    0.258E+00
RMM:   2    -0.956074438670E+02   -0.22769E+00   -0.25897E+00  6357   0.534E+00    0.116E+00
RMM:   3    -0.956793528904E+02   -0.71909E-01   -0.76547E-01  8467   0.296E+00    0.848E-01
RMM:   4    -0.956905839847E+02   -0.11231E-01   -0.10737E-01  8609   0.995E-01    0.844E-01
RMM:   5    -0.956898410370E+02    0.74295E-03   -0.22189E-02  8908   0.386E-01    0.669E-01
RMM:   6    -0.956907765023E+02   -0.93547E-03   -0.11700E-02  8373   0.250E-01    0.237E-01
RMM:   7    -0.956909475367E+02   -0.17103E-03   -0.51857E-03  7594   0.178E-01    0.213E-01
RMM:   8    -0.956910262436E+02   -0.78707E-04   -0.27490E-03  8267   0.109E-01    0.690E-02
RMM:   9    -0.956911508784E+02   -0.12463E-03   -0.15222E-03  7681   0.702E-02    0.362E-02
RMM:  10    -0.956912450783E+02   -0.94200E-04   -0.78573E-04  6835   0.512E-02    0.475E-02
RMM:  11    -0.956913080112E+02   -0.62933E-04   -0.55523E-04  6550   0.371E-02    0.173E-02
RMM:  12    -0.956913537082E+02   -0.45697E-04   -0.30928E-04  6163   0.277E-02    0.404E-03
RMM:  13    -0.956913867818E+02   -0.33074E-04   -0.20619E-04  5741   0.225E-02    0.583E-03
RMM:  14    -0.956914092431E+02   -0.22461E-04   -0.12957E-04  5347   0.171E-02    0.253E-03
RMM:  15    -0.956914317306E+02   -0.22487E-04   -0.90643E-05  4912   0.140E-02    0.302E-03
RMM:  16    -0.956914365983E+02   -0.48676E-05   -0.56282E-05  4353   0.112E-02
  29 F= -.98837602E+02 E0= -.98836020E+02  d E =-.430366E-01
       N       E                     dE             d eps       ncg     rms          rms(c)
DAV:   1    -0.955967627993E+02    0.94669E-01   -0.30247E+01  5440   0.142E+01    0.149E+00
RMM:   2    -0.956734970545E+02   -0.76734E-01   -0.87915E-01  6460   0.302E+00    0.697E-01
RMM:   3    -0.956979930566E+02   -0.24496E-01   -0.24529E-01  8548   0.165E+00    0.515E-01
RMM:   4    -0.957022294982E+02   -0.42364E-02   -0.36199E-02  8631   0.567E-01    0.489E-01
RMM:   5    -0.957007498852E+02    0.14796E-02   -0.78712E-03  8837   0.234E-01    0.332E-01
RMM:   6    -0.957010115100E+02   -0.26162E-03   -0.41054E-03  8692   0.144E-01    0.112E-01
RMM:   7    -0.957011802799E+02   -0.16877E-03   -0.15471E-03  8064   0.878E-02    0.820E-02
RMM:   8    -0.957012202187E+02   -0.39939E-04   -0.75513E-04  7727   0.546E-02    0.457E-02
RMM:   9    -0.957012545271E+02   -0.34308E-04   -0.45873E-04  6861   0.387E-02    0.211E-02
RMM:  10    -0.957012893463E+02   -0.34819E-04   -0.24435E-04  6402   0.284E-02    0.185E-02
RMM:  11    -0.957013089693E+02   -0.19623E-04   -0.14844E-04  5991   0.208E-02    0.703E-03
RMM:  12    -0.957013240303E+02   -0.15061E-04   -0.87869E-05  5513   0.156E-02    0.215E-03
RMM:  13    -0.957013351302E+02   -0.11100E-04   -0.55234E-05  4900   0.126E-02    0.174E-03
RMM:  14    -0.957013422008E+02   -0.70707E-05   -0.36708E-05  4317   0.102E-02
  30 F= -.98850265E+02 E0= -.98848445E+02  d E =-.556991E-01
       N       E                     dE             d eps       ncg     rms          rms(c)
DAV:   1    -0.957043416697E+02   -0.30065E-02   -0.48683E+00  5664   0.558E+00    0.561E-01
RMM:   2    -0.957141787165E+02   -0.98370E-02   -0.11284E-01  6145   0.113E+00    0.248E-01
RMM:   3    -0.957180368450E+02   -0.38581E-02   -0.37262E-02  8133   0.617E-01    0.180E-01
RMM:   4    -0.957183838501E+02   -0.34701E-03   -0.49400E-03  8227   0.208E-01    0.168E-01
RMM:   5    -0.957183047192E+02    0.79131E-04   -0.11320E-03  8205   0.856E-02    0.136E-01
RMM:   6    -0.957183898296E+02   -0.85110E-04   -0.61740E-04  7115   0.523E-02    0.368E-02
RMM:   7    -0.957184426372E+02   -0.52808E-04   -0.27400E-04  6004   0.326E-02    0.333E-02
RMM:   8    -0.957184532731E+02   -0.10636E-04   -0.13053E-04  5400   0.208E-02    0.117E-02
RMM:   9    -0.957184608771E+02   -0.76040E-05   -0.73220E-05  4849   0.144E-02
  31 F= -.98866046E+02 E0= -.98864318E+02  d E =-.157809E-01
       N       E                     dE             d eps       ncg     rms          rms(c)
DAV:   1    -0.957045090805E+02    0.13944E-01   -0.83642E+00  5472   0.733E+00    0.748E-01
RMM:   2    -0.957215316793E+02   -0.17023E-01   -0.19643E-01  6163   0.149E+00    0.329E-01
RMM:   3    -0.957282271611E+02   -0.66955E-02   -0.65452E-02  8199   0.818E-01    0.235E-01
RMM:   4    -0.957289482812E+02   -0.72112E-03   -0.88374E-03  8344   0.276E-01    0.222E-01
RMM:   5    -0.957288031646E+02    0.14512E-03   -0.21409E-03  8324   0.114E-01    0.180E-01
RMM:   6    -0.957289234718E+02   -0.12031E-03   -0.11160E-03  7608   0.689E-02    0.494E-02
RMM:   7    -0.957290327249E+02   -0.10925E-03   -0.54698E-04  6293   0.445E-02    0.472E-02
RMM:   8    -0.957290535925E+02   -0.20868E-04   -0.25887E-04  5800   0.283E-02    0.177E-02
RMM:   9    -0.957290701109E+02   -0.16518E-04   -0.15105E-04  5410   0.198E-02    0.127E-02
RMM:  10    -0.957290817259E+02   -0.11615E-04   -0.82180E-05  5001   0.147E-02    0.167E-02
RMM:  11    -0.957290908803E+02   -0.91544E-05   -0.60379E-05  4652   0.122E-02
  32 F= -.98874891E+02 E0= -.98873254E+02  d E =-.246266E-01
       N       E                     dE             d eps       ncg     rms          rms(c)
DAV:   1    -0.957355304162E+02   -0.64487E-02   -0.34141E+00  5712   0.436E+00    0.640E-01
RMM:   2    -0.957413231011E+02   -0.57927E-02   -0.67561E-02  6105   0.817E-01    0.327E-01
RMM:   3    -0.957433920994E+02   -0.20690E-02   -0.19664E-02  8108   0.447E-01    0.125E-01
RMM:   4    -0.957440314864E+02   -0.63939E-03   -0.33049E-03  7905   0.159E-01    0.126E-01
RMM:   5    -0.957437113225E+02    0.32016E-03   -0.80745E-04  7711   0.670E-02    0.763E-02
RMM:   6    -0.957437482725E+02   -0.36950E-04   -0.40045E-04  6155   0.399E-02    0.338E-02
RMM:   7    -0.957437743196E+02   -0.26047E-04   -0.21048E-04  5691   0.278E-02    0.106E-02
RMM:   8    -0.957437850050E+02   -0.10685E-04   -0.11990E-04  5275   0.191E-02    0.802E-03
RMM:   9    -0.957437924948E+02   -0.74898E-05   -0.75449E-05  4851   0.139E-02
  33 F= -.98888364E+02 E0= -.98886849E+02  d E =-.134724E-01
       N       E                     dE             d eps       ncg     rms          rms(c)
DAV:   1    -0.957407223230E+02    0.30627E-02   -0.54711E+00  5472   0.552E+00    0.798E-01
RMM:   2    -0.957501447716E+02   -0.94224E-02   -0.10910E-01  6138   0.104E+00    0.408E-01
RMM:   3    -0.957534013382E+02   -0.32566E-02   -0.31695E-02  8210   0.570E-01    0.151E-01
RMM:   4    -0.957541527796E+02   -0.75144E-03   -0.52755E-03  8068   0.202E-01    0.131E-01
RMM:   5    -0.957539972574E+02    0.15552E-03   -0.12840E-03  8060   0.825E-02    0.975E-02
RMM:   6    -0.957540423437E+02   -0.45086E-04   -0.62098E-04  6669   0.496E-02    0.399E-02
RMM:   7    -0.957540843041E+02   -0.41960E-04   -0.34185E-04  5981   0.336E-02    0.131E-02
RMM:   8    -0.957541016597E+02   -0.17356E-04   -0.19370E-04  5546   0.237E-02    0.104E-02
RMM:   9    -0.957541143932E+02   -0.12733E-04   -0.12674E-04  5123   0.170E-02    0.114E-02
RMM:  10    -0.957541216111E+02   -0.72180E-05   -0.77113E-05  4728   0.129E-02
  34 F= -.98897114E+02 E0= -.98895725E+02  d E =-.222229E-01
       N       E                     dE             d eps       ncg     rms          rms(c)
DAV:   1    -0.957534001681E+02    0.71423E-03   -0.88267E-01  5848   0.221E+00    0.316E-01
RMM:   2    -0.957549015777E+02   -0.15014E-02   -0.17730E-02  6069   0.416E-01    0.161E-01
RMM:   3    -0.957554479477E+02   -0.54637E-03   -0.51184E-03  7986   0.227E-01    0.602E-02
RMM:   4    -0.957555500231E+02   -0.10208E-03   -0.90656E-04  7532   0.830E-02    0.419E-02
RMM:   5    -0.957555847687E+02   -0.34746E-04   -0.24497E-04  6481   0.369E-02    0.342E-02
RMM:   6    -0.957555827854E+02    0.19834E-05   -0.11823E-04  5514   0.217E-02    0.149E-02
RMM:   7    -0.957555900264E+02   -0.72410E-05   -0.68642E-05  4926   0.152E-02
  35 F= -.98897942E+02 E0= -.98896597E+02  d E =-.230504E-01
       N       E                     dE             d eps       ncg     rms          rms(c)
DAV:   1    -0.957589113402E+02   -0.33286E-02   -0.28163E+00  5552   0.385E+00    0.712E-01
RMM:   2    -0.957638803215E+02   -0.49690E-02   -0.59882E-02  6257   0.714E-01    0.360E-01
RMM:   3    -0.957657354506E+02   -0.18551E-02   -0.15728E-02  8245   0.381E-01    0.126E-01
RMM:   4    -0.957662276295E+02   -0.49218E-03   -0.25894E-03  8292   0.140E-01    0.136E-01
RMM:   5    -0.957658231954E+02    0.40443E-03   -0.74371E-04  7714   0.662E-02    0.614E-02
RMM:   6    -0.957658704830E+02   -0.47288E-04   -0.41673E-04  6669   0.399E-02    0.168E-02
RMM:   7    -0.957658922639E+02   -0.21781E-04   -0.19391E-04  5783   0.258E-02    0.834E-03
RMM:   8    -0.957659022662E+02   -0.10002E-04   -0.10690E-04  5100   0.175E-02    0.755E-03
RMM:   9    -0.957659089730E+02   -0.67069E-05   -0.66095E-05  4726   0.131E-02
  36 F= -.98906819E+02 E0= -.98905481E+02  d E =-.887748E-02
       N       E                     dE             d eps       ncg     rms          rms(c)
DAV:   1    -0.957650268715E+02    0.87539E-03   -0.24043E+00  5520   0.355E+00    0.646E-01
RMM:   2    -0.957692388812E+02   -0.42120E-02   -0.50893E-02  6238   0.658E-01    0.325E-01
RMM:   3    -0.957708871504E+02   -0.16483E-02   -0.13389E-02  8186   0.351E-01    0.122E-01
RMM:   4    -0.957711979048E+02   -0.31075E-03   -0.21908E-03  8215   0.129E-01    0.124E-01
RMM:   5    -0.957708911612E+02    0.30674E-03   -0.63848E-04  7607   0.614E-02    0.560E-02
RMM:   6    -0.957709342492E+02   -0.43088E-04   -0.36005E-04  6457   0.371E-02    0.144E-02
RMM:   7    -0.957709536161E+02   -0.19367E-04   -0.16638E-04  5564   0.243E-02    0.765E-03
RMM:   8    -0.957709624292E+02   -0.88130E-05   -0.92286E-05  4986   0.165E-02
  37 F= -.98910539E+02 E0= -.98909200E+02  d E =-.125977E-01
       N       E                     dE             d eps       ncg     rms          rms(c)
DAV:   1    -0.957710407933E+02   -0.87177E-04   -0.26248E-01  5856   0.117E+00    0.211E-01
RMM:   2    -0.957714831611E+02   -0.44237E-03   -0.56272E-03  6142   0.217E-01    0.105E-01
RMM:   3    -0.957717036943E+02   -0.22053E-03   -0.14864E-03  7876   0.116E-01    0.437E-02
RMM:   4    -0.957717200900E+02   -0.16396E-04   -0.29235E-04  6882   0.449E-02    0.396E-02
RMM:   5    -0.957716975875E+02    0.22502E-04   -0.10048E-04  5282   0.234E-02    0.179E-02
RMM:   6    -0.957717055480E+02   -0.79605E-05   -0.55878E-05  4705   0.145E-02
  38 F= -.98910842E+02 E0= -.98909501E+02  d E =-.129007E-01
       N       E                     dE             d eps       ncg     rms          rms(c)
DAV:   1    -0.957753177223E+02   -0.36201E-02   -0.30983E-01  5672   0.132E+00    0.174E-01
RMM:   2    -0.957761162947E+02   -0.79857E-03   -0.97815E-03  6340   0.264E-01    0.840E-02
RMM:   3    -0.957763374838E+02   -0.22119E-03   -0.20161E-03  8105   0.132E-01    0.469E-02
RMM:   4    -0.957764171501E+02   -0.79666E-04   -0.32872E-04  7223   0.510E-02    0.503E-02
RMM:   5    -0.957763712709E+02    0.45879E-04   -0.11666E-04  5717   0.264E-02    0.194E-02
RMM:   6    -0.957763813740E+02   -0.10103E-04   -0.64806E-05  4796   0.160E-02    0.751E-03
RMM:   7    -0.957763861220E+02   -0.47481E-05   -0.29031E-05  4093   0.107E-02
  39 F= -.98914705E+02 E0= -.98913367E+02  d E =-.386270E-02
       N       E                     dE             d eps       ncg     rms          rms(c)
DAV:   1    -0.957790994687E+02   -0.27181E-02   -0.27909E+00  5440   0.397E+00    0.518E-01
RMM:   2    -0.957864385142E+02   -0.73390E-02   -0.87345E-02  6491   0.794E-01    0.251E-01
RMM:   3    -0.957882860832E+02   -0.18476E-02   -0.18041E-02  8459   0.397E-01    0.142E-01
RMM:   4    -0.957889510180E+02   -0.66493E-03   -0.27822E-03  8450   0.150E-01    0.152E-01
RMM:   5    -0.957885249676E+02    0.42605E-03   -0.89214E-04  7841   0.719E-02    0.589E-02
RMM:   6    -0.957885927133E+02   -0.67746E-04   -0.44394E-04  6818   0.417E-02    0.219E-02
RMM:   7    -0.957886221462E+02   -0.29433E-04   -0.19438E-04  6010   0.265E-02    0.123E-02
RMM:   8    -0.957886320720E+02   -0.99258E-05   -0.10010E-04  5245   0.176E-02    0.893E-03
RMM:   9    -0.957886387933E+02   -0.67214E-05   -0.56712E-05  4702   0.128E-02
  40 F= -.98924526E+02 E0= -.98923190E+02  d E =-.136835E-01
       N       E                     dE             d eps       ncg     rms          rms(c)
DAV:   1    -0.957670580139E+02    0.21574E-01   -0.11172E+01  5440   0.793E+00    0.104E+00
RMM:   2    -0.957966884226E+02   -0.29630E-01   -0.35027E-01  6567   0.160E+00    0.500E-01
RMM:   3    -0.958038868926E+02   -0.71985E-02   -0.72083E-02  8721   0.804E-01    0.281E-01
RMM:   4    -0.958064714412E+02   -0.25845E-02   -0.11196E-02  8701   0.301E-01    0.288E-01
RMM:   5    -0.958048952928E+02    0.15761E-02   -0.35346E-03  8511   0.143E-01    0.120E-01
RMM:   6    -0.958051180788E+02   -0.22279E-03   -0.16781E-03  8314   0.822E-02    0.466E-02
RMM:   7    -0.958052281689E+02   -0.11009E-03   -0.73715E-04  7346   0.503E-02    0.230E-02
RMM:   8    -0.958052666476E+02   -0.38479E-04   -0.38286E-04  6681   0.336E-02    0.166E-02
RMM:   9    -0.958052940783E+02   -0.27431E-04   -0.23322E-04  6017   0.240E-02    0.114E-02
RMM:  10    -0.958053098707E+02   -0.15792E-04   -0.12080E-04  5497   0.181E-02    0.354E-03
RMM:  11    -0.958053194380E+02   -0.95673E-05   -0.81764E-05  4970   0.139E-02
  41 F= -.98936432E+02 E0= -.98935083E+02  d E =-.255894E-01
       N       E                     dE             d eps       ncg     rms          rms(c)
DAV:   1    -0.956519086612E+02    0.15340E+00   -0.44705E+01  5440   0.158E+01    0.215E+00
RMM:   2    -0.957730128305E+02   -0.12110E+00   -0.14236E+00  6860   0.339E+00    0.100E+00
RMM:   3    -0.958023215981E+02   -0.29309E-01   -0.29858E-01  8818   0.167E+00    0.586E-01
RMM:   4    -0.958122572166E+02   -0.99356E-02   -0.49673E-02  8826   0.633E-01    0.569E-01
RMM:   5    -0.958069277593E+02    0.53295E-02   -0.14248E-02  8792   0.290E-01    0.280E-01
RMM:   6    -0.958075626597E+02   -0.63490E-03   -0.67213E-03  9180   0.171E-01    0.105E-01
RMM:   7    -0.958079906528E+02   -0.42799E-03   -0.30529E-03  8732   0.108E-01    0.498E-02
RMM:   8    -0.958081429748E+02   -0.15232E-03   -0.15643E-03  8316   0.706E-02    0.358E-02
RMM:   9    -0.958082517702E+02   -0.10880E-03   -0.95420E-04  7646   0.500E-02    0.280E-02
RMM:  10    -0.958083121205E+02   -0.60350E-04   -0.48938E-04  7272   0.382E-02    0.132E-02
RMM:  11    -0.958083525513E+02   -0.40431E-04   -0.35594E-04  6611   0.292E-02    0.615E-03
RMM:  12    -0.958083783298E+02   -0.25778E-04   -0.21076E-04  6041   0.223E-02    0.435E-03
RMM:  13    -0.958083962233E+02   -0.17894E-04   -0.13487E-04  5621   0.181E-02    0.305E-03
RMM:  14    -0.958084072875E+02   -0.11064E-04   -0.91699E-05  5033   0.145E-02    0.268E-03
RMM:  15    -0.958084165006E+02   -0.92131E-05   -0.60600E-05  4471   0.119E-02
  42 F= -.98930383E+02 E0= -.98928918E+02  d E =-.195404E-01
       N       E                     dE             d eps       ncg     rms          rms(c)
DAV:   1    -0.957428557162E+02    0.65552E-01   -0.19086E+01  5440   0.104E+01    0.134E+00
RMM:   2    -0.957956820643E+02   -0.52826E-01   -0.61885E-01  6530   0.213E+00    0.637E-01
RMM:   3    -0.958099845835E+02   -0.14303E-01   -0.13251E-01  8917   0.107E+00    0.430E-01
RMM:   4    -0.958125701848E+02   -0.25856E-02   -0.20299E-02  8746   0.401E-01    0.472E-01
RMM:   5    -0.958101653479E+02    0.24048E-02   -0.60745E-03  8741   0.190E-01    0.189E-01
RMM:   6    -0.958106515166E+02   -0.48617E-03   -0.31678E-03  8652   0.113E-01    0.503E-02
RMM:   7    -0.958107710140E+02   -0.11950E-03   -0.10567E-03  8057   0.636E-02    0.389E-02
RMM:   8    -0.958108416016E+02   -0.70588E-04   -0.56276E-04  7351   0.424E-02    0.229E-02
RMM:   9    -0.958108766814E+02   -0.35080E-04   -0.30977E-04  6840   0.305E-02    0.988E-03
RMM:  10    -0.958108969924E+02   -0.20311E-04   -0.17869E-04  6126   0.221E-02    0.730E-03
RMM:  11    -0.958109097078E+02   -0.12715E-04   -0.10681E-04  5558   0.167E-02    0.335E-03
RMM:  12    -0.958109177948E+02   -0.80870E-05   -0.65507E-05  4980   0.133E-02
  43 F= -.98938809E+02 E0= -.98937435E+02  d E =-.279662E-01
       N       E                     dE             d eps       ncg     rms          rms(c)
DAV:   1    -0.958098770982E+02    0.10326E-02   -0.20473E+00  5504   0.323E+00    0.428E-01
RMM:   2    -0.958149222057E+02   -0.50451E-02   -0.64518E-02  6236   0.635E-01    0.202E-01
RMM:   3    -0.958162110860E+02   -0.12889E-02   -0.14473E-02  8340   0.323E-01    0.132E-01
RMM:   4    -0.958165717554E+02   -0.36067E-03   -0.22008E-03  8025   0.121E-01    0.123E-01
RMM:   5    -0.958164029409E+02    0.16881E-03   -0.58285E-04  7179   0.542E-02    0.710E-02
RMM:   6    -0.958164371569E+02   -0.34216E-04   -0.27199E-04  5837   0.321E-02    0.232E-02
RMM:   7    -0.958164590093E+02   -0.21852E-04   -0.12251E-04  5263   0.205E-02    0.827E-03
RMM:   8    -0.958164673737E+02   -0.83643E-05   -0.65525E-05  4477   0.133E-02
  44 F= -.98942300E+02 E0= -.98940872E+02  d E =-.349138E-02
       N       E                     dE             d eps       ncg     rms          rms(c)
DAV:   1    -0.958161675338E+02    0.29148E-03   -0.39606E-02  5904   0.445E-01    0.601E-02
RMM:   2    -0.958162543954E+02   -0.86862E-04   -0.11690E-03  5813   0.865E-02    0.281E-02
RMM:   3    -0.958162797525E+02   -0.25357E-04   -0.24749E-04  6248   0.436E-02    0.173E-02
RMM:   4    -0.958162859215E+02   -0.61690E-05   -0.41947E-05  4439   0.181E-02
  45 F= -.98942403E+02 E0= -.98940986E+02  d E =-.359439E-02
       N       E                     dE             d eps       ncg     rms          rms(c)
DAV:   1    -0.958190585730E+02   -0.27788E-02   -0.80101E-01  5536   0.205E+00    0.271E-01
RMM:   2    -0.958210900233E+02   -0.20315E-02   -0.24112E-02  6093   0.415E-01    0.141E-01
RMM:   3    -0.958217228540E+02   -0.63283E-03   -0.59675E-03  8024   0.222E-01    0.979E-02
RMM:   4    -0.958218484278E+02   -0.12557E-03   -0.79695E-04  7182   0.743E-02    0.835E-02
RMM:   5    -0.958217732571E+02    0.75171E-04   -0.19257E-04  6111   0.350E-02    0.455E-02
RMM:   6    -0.958217813645E+02   -0.81074E-05   -0.96107E-05  5153   0.203E-02
  46 F= -.98946531E+02 E0= -.98945131E+02  d E =-.412806E-02
       N       E                     dE             d eps       ncg     rms          rms(c)
DAV:   1    -0.958095153093E+02    0.12258E-01   -0.72184E+00  5440   0.615E+00    0.819E-01
RMM:   2    -0.958283299713E+02   -0.18815E-01   -0.21892E-01  6113   0.125E+00    0.424E-01
RMM:   3    -0.958350808753E+02   -0.67509E-02   -0.54311E-02  8320   0.664E-01    0.356E-01
RMM:   4    -0.958343134642E+02    0.76741E-03   -0.74400E-03  7993   0.227E-01    0.275E-01
RMM:   5    -0.958341757670E+02    0.13770E-03   -0.18975E-03  8022   0.103E-01    0.147E-01
RMM:   6    -0.958343375100E+02   -0.16174E-03   -0.97748E-04  6745   0.594E-02    0.313E-02
RMM:   7    -0.958343713688E+02   -0.33859E-04   -0.38779E-04  5645   0.347E-02    0.181E-02
RMM:   8    -0.958343909540E+02   -0.19585E-04   -0.20101E-04  5297   0.232E-02    0.117E-02
RMM:   9    -0.958344051323E+02   -0.14178E-04   -0.11910E-04  5014   0.164E-02    0.933E-03
RMM:  10    -0.958344146955E+02   -0.95632E-05   -0.63106E-05  4637   0.125E-02
  47 F= -.98955096E+02 E0= -.98953778E+02  d E =-.126933E-01
       N       E                     dE             d eps       ncg     rms          rms(c)
DAV:   1    -0.957423317599E+02    0.92073E-01   -0.28956E+01  5448   0.124E+01    0.168E+00
RMM:   2    -0.958187731885E+02   -0.76441E-01   -0.88076E-01  6177   0.259E+00    0.842E-01
RMM:   3    -0.958458924046E+02   -0.27119E-01   -0.21892E-01  8351   0.132E+00    0.713E-01
RMM:   4    -0.958425031502E+02    0.33893E-02   -0.30798E-02  8007   0.459E-01    0.584E-01
RMM:   5    -0.958419563957E+02    0.54675E-03   -0.74405E-03  8474   0.205E-01    0.339E-01
RMM:   6    -0.958425110225E+02   -0.55463E-03   -0.38752E-03  8135   0.119E-01    0.777E-02
RMM:   7    -0.958426026033E+02   -0.91581E-04   -0.14471E-03  6782   0.681E-02    0.418E-02
RMM:   8    -0.958426725483E+02   -0.69945E-04   -0.80142E-04  6055   0.463E-02    0.192E-02
RMM:   9    -0.958427268413E+02   -0.54293E-04   -0.46502E-04  5574   0.319E-02    0.154E-02
RMM:  10    -0.958427610843E+02   -0.34243E-04   -0.24406E-04  5345   0.234E-02    0.606E-03
RMM:  11    -0.958427858127E+02   -0.24728E-04   -0.16041E-04  5094   0.177E-02    0.297E-03
RMM:  12    -0.958428006086E+02   -0.14796E-04   -0.91960E-05  4755   0.133E-02    0.248E-03
RMM:  13    -0.958428096626E+02   -0.90540E-05   -0.60972E-05  4490   0.107E-02
  48 F= -.98955524E+02 E0= -.98954369E+02  d E =-.131214E-01
       N       E                     dE             d eps       ncg     rms          rms(c)
DAV:   1    -0.958199706155E+02    0.22830E-01   -0.63228E+00  5440   0.575E+00    0.803E-01
RMM:   2    -0.958360537119E+02   -0.16083E-01   -0.18859E-01  6113   0.117E+00    0.420E-01
RMM:   3    -0.958416136692E+02   -0.55600E-02   -0.49643E-02  8229   0.632E-01    0.310E-01
RMM:   4    -0.958419447839E+02   -0.33111E-03   -0.65518E-03  8069   0.213E-01    0.249E-01
RMM:   5    -0.958414938052E+02    0.45098E-03   -0.14918E-03  7680   0.975E-02    0.143E-01
RMM:   6    -0.958415884318E+02   -0.94627E-04   -0.77329E-04  6989   0.573E-02    0.367E-02
RMM:   7    -0.958416142444E+02   -0.25813E-04   -0.27670E-04  5685   0.328E-02    0.225E-02
RMM:   8    -0.958416278907E+02   -0.13646E-04   -0.14340E-04  5136   0.210E-02    0.132E-02
RMM:   9    -0.958416369466E+02   -0.90559E-05   -0.79353E-05  4668   0.149E-02
  49 F= -.98958055E+02 E0= -.98956822E+02  d E =-.156516E-01
       N       E                     dE             d eps       ncg     rms          rms(c)
DAV:   1    -0.958410357204E+02    0.59217E-03   -0.28508E+00  5504   0.399E+00    0.428E-01
RMM:   2    -0.958469191113E+02   -0.58834E-02   -0.66681E-02  6094   0.783E-01    0.204E-01
RMM:   3    -0.958499083729E+02   -0.29893E-02   -0.22104E-02  8245   0.438E-01    0.221E-01
RMM:   4    -0.958491844605E+02    0.72391E-03   -0.28287E-03  7975   0.146E-01    0.150E-01
RMM:   5    -0.958492223046E+02   -0.37844E-04   -0.62030E-04  7668   0.624E-02    0.109E-01
RMM:   6    -0.958493095754E+02   -0.87271E-04   -0.40083E-04  6225   0.403E-02    0.352E-02
RMM:   7    -0.958493247013E+02   -0.15126E-04   -0.14608E-04  5386   0.243E-02    0.266E-02
RMM:   8    -0.958493297340E+02   -0.50326E-05   -0.76473E-05  4886   0.160E-02
  50 F= -.98963415E+02 E0= -.98962267E+02  d E =-.536053E-02
       N       E                     dE             d eps       ncg     rms          rms(c)
DAV:   1    -0.958484913760E+02    0.83333E-03   -0.10996E+00  5696   0.247E+00    0.265E-01
RMM:   2    -0.958507665928E+02   -0.22752E-02   -0.26155E-02  6110   0.487E-01    0.127E-01
RMM:   3    -0.958518810918E+02   -0.11145E-02   -0.86476E-03  8142   0.275E-01    0.128E-01
RMM:   4    -0.958517033027E+02    0.17779E-03   -0.11901E-03  7625   0.924E-02    0.933E-02
RMM:   5    -0.958517203834E+02   -0.17081E-04   -0.29582E-04  6661   0.407E-02    0.685E-02
RMM:   6    -0.958517638346E+02   -0.43451E-04   -0.19040E-04  5498   0.278E-02    0.237E-02
RMM:   7    -0.958517731832E+02   -0.93486E-05   -0.81797E-05  4950   0.179E-02
  51 F= -.98964419E+02 E0= -.98963317E+02  d E =-.636427E-02
       N       E                     dE             d eps       ncg     rms          rms(c)
DAV:   1    -0.958528888080E+02   -0.11250E-02   -0.24960E+00  5552   0.379E+00    0.468E-01
RMM:   2    -0.958572518859E+02   -0.43631E-02   -0.48042E-02  6120   0.729E-01    0.221E-01
RMM:   3    -0.958603466846E+02   -0.30948E-02   -0.17435E-02  8234   0.416E-01    0.234E-01
RMM:   4    -0.958590473375E+02    0.12993E-02   -0.21188E-03  7915   0.136E-01    0.117E-01
RMM:   5    -0.958591162478E+02   -0.68910E-04   -0.58658E-04  7820   0.603E-02    0.893E-02
RMM:   6    -0.958591643881E+02   -0.48140E-04   -0.29088E-04  6162   0.371E-02    0.220E-02
RMM:   7    -0.958591747704E+02   -0.10382E-04   -0.13394E-04  5320   0.237E-02    0.143E-02
RMM:   8    -0.958591806112E+02   -0.58408E-05   -0.77313E-05  4960   0.159E-02
  52 F= -.98969968E+02 E0= -.98968962E+02  d E =-.554962E-02
       N       E                     dE             d eps       ncg     rms          rms(c)
DAV:   1    -0.958519775270E+02    0.71972E-02   -0.61524E+00  5440   0.593E+00    0.728E-01
RMM:   2    -0.958628145934E+02   -0.10837E-01   -0.11832E-01  6170   0.115E+00    0.346E-01
RMM:   3    -0.958704328927E+02   -0.76183E-02   -0.42713E-02  8287   0.649E-01    0.367E-01
RMM:   4    -0.958671639843E+02    0.32689E-02   -0.52154E-03  8010   0.214E-01    0.183E-01
RMM:   5    -0.958673091450E+02   -0.14516E-03   -0.13867E-03  8409   0.939E-02    0.140E-01
RMM:   6    -0.958674207763E+02   -0.11163E-03   -0.67770E-04  7183   0.560E-02    0.345E-02
RMM:   7    -0.958674419669E+02   -0.21191E-04   -0.30478E-04  5985   0.343E-02    0.222E-02
RMM:   8    -0.958674566600E+02   -0.14693E-04   -0.18279E-04  5470   0.238E-02    0.131E-02
RMM:   9    -0.958674672171E+02   -0.10557E-04   -0.10410E-04  5047   0.168E-02    0.124E-02
RMM:  10    -0.958674731447E+02   -0.59276E-05   -0.59162E-05  4751   0.134E-02
  53 F= -.98975370E+02 E0= -.98974491E+02  d E =-.109508E-01
       N       E                     dE             d eps       ncg     rms          rms(c)
DAV:   1    -0.958080246919E+02    0.59443E-01   -0.24640E+01  5448   0.119E+01    0.146E+00
RMM:   2    -0.958530396120E+02   -0.45015E-01   -0.48685E-01  6212   0.240E+00    0.705E-01
RMM:   3    -0.958841206188E+02   -0.31081E-01   -0.17775E-01  8405   0.132E+00    0.733E-01
RMM:   4    -0.958708623272E+02    0.13258E-01   -0.25126E-02  8357   0.473E-01    0.375E-01
RMM:   5    -0.958713464182E+02   -0.48409E-03   -0.55634E-03  8949   0.195E-01    0.283E-01
RMM:   6    -0.958716906466E+02   -0.34423E-03   -0.26644E-03  8210   0.120E-01    0.816E-02
RMM:   7    -0.958717659828E+02   -0.75336E-04   -0.11621E-03  7900   0.735E-02    0.545E-02
RMM:   8    -0.958718154914E+02   -0.49509E-04   -0.69688E-04  6952   0.492E-02    0.294E-02
RMM:   9    -0.958718547227E+02   -0.39231E-04   -0.39085E-04  6262   0.332E-02    0.278E-02
RMM:  10    -0.958718761730E+02   -0.21450E-04   -0.21261E-04  5794   0.240E-02    0.162E-02
RMM:  11    -0.958718957965E+02   -0.19623E-04   -0.14783E-04  5523   0.197E-02    0.657E-03
RMM:  12    -0.958719052848E+02   -0.94883E-05   -0.92061E-05  4990   0.146E-02
  54 F= -.98974111E+02 E0= -.98973425E+02  d E =-.969165E-02
       N       E                     dE             d eps       ncg     rms          rms(c)
DAV:   1    -0.958480359788E+02    0.23860E-01   -0.85020E+00  5440   0.701E+00    0.831E-01
RMM:   2    -0.958640387172E+02   -0.16003E-01   -0.17638E-01  6163   0.141E+00    0.399E-01
RMM:   3    -0.958736117572E+02   -0.95730E-02   -0.65744E-02  8189   0.795E-01    0.412E-01
RMM:   4    -0.958708789486E+02    0.27328E-02   -0.81912E-03  8195   0.272E-01    0.250E-01
RMM:   5    -0.958710772579E+02   -0.19831E-03   -0.17648E-03  8532   0.116E-01    0.195E-01
RMM:   6    -0.958712190606E+02   -0.14180E-03   -0.10480E-03  7711   0.719E-02    0.583E-02
RMM:   7    -0.958712371476E+02   -0.18087E-04   -0.33235E-04  6568   0.406E-02    0.320E-02
RMM:   8    -0.958712469621E+02   -0.98145E-05   -0.17873E-04  5885   0.255E-02    0.147E-02
RMM:   9    -0.958712560092E+02   -0.90471E-05   -0.93143E-05  5209   0.173E-02
  55 F= -.98976793E+02 E0= -.98976002E+02  d E =-.123745E-01
       N       E                     dE             d eps       ncg     rms          rms(c)
DAV:   1    -0.958705699624E+02    0.67700E-03   -0.24156E+00  5616   0.371E+00    0.513E-01
RMM:   2    -0.958745918495E+02   -0.40219E-02   -0.46571E-02  6043   0.715E-01    0.246E-01
RMM:   3    -0.958772617154E+02   -0.26699E-02   -0.16845E-02  8146   0.414E-01    0.212E-01
RMM:   4    -0.958763673690E+02    0.89435E-03   -0.19794E-03  7760   0.130E-01    0.118E-01
RMM:   5    -0.958764059242E+02   -0.38555E-04   -0.40652E-04  7712   0.558E-02    0.898E-02
RMM:   6    -0.958764363823E+02   -0.30458E-04   -0.20623E-04  5942   0.332E-02    0.162E-02
RMM:   7    -0.958764454917E+02   -0.91094E-05   -0.90946E-05  5012   0.207E-02
  56 F= -.98980137E+02 E0= -.98979370E+02  d E =-.334364E-02
       N       E                     dE             d eps       ncg     rms          rms(c)
DAV:   1    -0.958766531569E+02   -0.21677E-03   -0.24407E-01  5936   0.118E+00    0.161E-01
RMM:   2    -0.958770591633E+02   -0.40601E-03   -0.48706E-03  5996   0.231E-01    0.762E-02
RMM:   3    -0.958773069231E+02   -0.24776E-03   -0.17830E-03  7825   0.132E-01    0.570E-02
RMM:   4    -0.958772686990E+02    0.38224E-04   -0.24513E-04  6737   0.441E-02    0.383E-02
RMM:   5    -0.958772736681E+02   -0.49691E-05   -0.75042E-05  5079   0.223E-02
  57 F= -.98980382E+02 E0= -.98979616E+02  d E =-.358833E-02
       N       E                     dE             d eps       ncg     rms          rms(c)
DAV:   1    -0.958786267414E+02   -0.13580E-02   -0.12891E-01  5808   0.903E-01    0.834E-02
RMM:   2    -0.958788528442E+02   -0.22610E-03   -0.25451E-03  5911   0.191E-01    0.366E-02
RMM:   3    -0.958789679113E+02   -0.11507E-03   -0.11091E-03  7546   0.109E-01    0.256E-02
RMM:   4    -0.958789791529E+02   -0.11242E-04   -0.13577E-04  6325   0.350E-02    0.289E-02
RMM:   5    -0.958789793106E+02   -0.15775E-06   -0.40099E-05  4365   0.178E-02
  58 F= -.98981551E+02 E0= -.98980803E+02  d E =-.116924E-02
       N       E                     dE             d eps       ncg     rms          rms(c)
DAV:   1    -0.958801343825E+02   -0.11552E-02   -0.11596E+00  5632   0.271E+00    0.244E-01
RMM:   2    -0.958821873325E+02   -0.20530E-02   -0.22701E-02  6063   0.569E-01    0.109E-01
RMM:   3    -0.958832120216E+02   -0.10247E-02   -0.98004E-03  7970   0.326E-01    0.867E-02
RMM:   4    -0.958832721716E+02   -0.60150E-04   -0.10970E-03  7642   0.101E-01    0.863E-02
RMM:   5    -0.958832713039E+02    0.86775E-06   -0.24511E-04  7271   0.431E-02    0.803E-02
RMM:   6    -0.958832813147E+02   -0.10011E-04   -0.11052E-04  5638   0.261E-02    0.313E-02
RMM:   7    -0.958832982535E+02   -0.16939E-04   -0.84478E-05  5245   0.202E-02    0.493E-02
RMM:   8    -0.958832972861E+02    0.96735E-06   -0.32253E-05  4446   0.124E-02
  59 F= -.98984262E+02 E0= -.98983556E+02  d E =-.388015E-02
       N       E                     dE             d eps       ncg     rms          rms(c)
DAV:   1    -0.958756084847E+02    0.76898E-02   -0.46381E+00  5552   0.542E+00    0.490E-01
RMM:   2    -0.958840188967E+02   -0.84104E-02   -0.92599E-02  6134   0.115E+00    0.215E-01
RMM:   3    -0.958880957922E+02   -0.40769E-02   -0.40344E-02  8139   0.662E-01    0.164E-01
RMM:   4    -0.958884282787E+02   -0.33249E-03   -0.44278E-03  7918   0.202E-01    0.168E-01
RMM:   5    -0.958884003569E+02    0.27922E-04   -0.91988E-04  8144   0.839E-02    0.156E-01
RMM:   6    -0.958884275414E+02   -0.27185E-04   -0.37081E-04  6831   0.443E-02    0.796E-02
RMM:   7    -0.958884875394E+02   -0.59998E-04   -0.37225E-04  6178   0.391E-02    0.103E-01
RMM:   8    -0.958884804601E+02    0.70793E-05   -0.10596E-04  5516   0.239E-02    0.261E-02
RMM:   9    -0.958884865207E+02   -0.60605E-05   -0.85641E-05  5011   0.158E-02
  60 F= -.98986247E+02 E0= -.98985623E+02  d E =-.586505E-02
       N       E                     dE             d eps       ncg     rms          rms(c)
DAV:   1    -0.958897106446E+02   -0.12302E-02   -0.20303E-01  5768   0.113E+00    0.109E-01
RMM:   2    -0.958900819165E+02   -0.37127E-03   -0.42211E-03  6044   0.235E-01    0.497E-02
RMM:   3    -0.958902432750E+02   -0.16136E-03   -0.16029E-03  7702   0.132E-01    0.284E-02
RMM:   4    -0.958902623120E+02   -0.19037E-04   -0.21404E-04  6688   0.438E-02    0.267E-02
RMM:   5    -0.958902701792E+02   -0.78672E-05   -0.68346E-05  5228   0.234E-02
  61 F= -.98987363E+02 E0= -.98986761E+02  d E =-.111609E-02
       N       E                     dE             d eps       ncg     rms          rms(c)
DAV:   1    -0.958893477576E+02    0.91455E-03   -0.18294E+00  5528   0.340E+00    0.310E-01
RMM:   2    -0.958927287168E+02   -0.33810E-02   -0.37779E-02  6175   0.706E-01    0.145E-01
RMM:   3    -0.958942287254E+02   -0.15000E-02   -0.14352E-02  7994   0.395E-01    0.970E-02
RMM:   4    -0.958943505500E+02   -0.12182E-03   -0.17162E-03  7923   0.126E-01    0.105E-01
RMM:   5    -0.958943244964E+02    0.26054E-04   -0.41097E-04  7616   0.518E-02    0.869E-02
RMM:   6    -0.958943411328E+02   -0.16636E-04   -0.19979E-04  5988   0.319E-02    0.307E-02
RMM:   7    -0.958943587635E+02   -0.17631E-04   -0.10474E-04  5593   0.231E-02    0.374E-02
RMM:   8    -0.958943616574E+02   -0.28939E-05   -0.52450E-05  4878   0.148E-02
  62 F= -.98989455E+02 E0= -.98988920E+02  d E =-.320859E-02
       N       E                     dE             d eps       ncg     rms          rms(c)
DAV:   1    -0.958764731698E+02    0.17886E-01   -0.73243E+00  5472   0.681E+00    0.615E-01
RMM:   2    -0.958903811912E+02   -0.13908E-01   -0.15422E-01  6220   0.143E+00    0.286E-01
RMM:   3    -0.958961225903E+02   -0.57414E-02   -0.59234E-02  8200   0.808E-01    0.178E-01
RMM:   4    -0.958968329261E+02   -0.71034E-03   -0.74329E-03  8123   0.261E-01    0.180E-01
RMM:   5    -0.958969048377E+02   -0.71912E-04   -0.15097E-03  8378   0.102E-01    0.170E-01
RMM:   6    -0.958969440326E+02   -0.39195E-04   -0.68848E-04  7269   0.571E-02    0.769E-02
RMM:   7    -0.958970055200E+02   -0.61487E-04   -0.41613E-04  6437   0.451E-02    0.830E-02
RMM:   8    -0.958970129469E+02   -0.74268E-05   -0.18951E-04  5851   0.278E-02    0.258E-02
RMM:   9    -0.958970242704E+02   -0.11324E-04   -0.13031E-04  5398   0.195E-02    0.960E-03
RMM:  10    -0.958970322131E+02   -0.79426E-05   -0.66211E-05  4873   0.136E-02
  63 F= -.98988145E+02 E0= -.98987723E+02  d E =-.189833E-02
       N       E                     dE             d eps       ncg     rms          rms(c)
DAV:   1    -0.958861296517E+02    0.10895E-01   -0.35218E+00  5456   0.471E+00    0.424E-01
RMM:   2    -0.958928018439E+02   -0.66722E-02   -0.74140E-02  6166   0.990E-01    0.192E-01
RMM:   3    -0.958955413086E+02   -0.27395E-02   -0.27974E-02  8137   0.555E-01    0.129E-01
RMM:   4    -0.958958402848E+02   -0.29898E-03   -0.33912E-03  8013   0.179E-01    0.126E-01
RMM:   5    -0.958958967792E+02   -0.56494E-04   -0.64852E-04  7993   0.702E-02    0.630E-02
RMM:   6    -0.958959725203E+02   -0.75741E-04   -0.33098E-04  6489   0.402E-02    0.597E-02
RMM:   7    -0.958959626256E+02    0.98946E-05   -0.10938E-04  5656   0.227E-02    0.359E-02
RMM:   8    -0.958959640271E+02   -0.14014E-05   -0.68264E-05  5159   0.169E-02
  64 F= -.98989838E+02 E0= -.98989340E+02  d E =-.359142E-02
       N       E                     dE             d eps       ncg     rms          rms(c)
DAV:   1    -0.958970796990E+02   -0.11171E-02   -0.17832E-01  5728   0.108E+00    0.996E-02
RMM:   2    -0.958974824349E+02   -0.40274E-03   -0.47295E-03  5998   0.227E-01    0.473E-02
RMM:   3    -0.958976409943E+02   -0.15856E-03   -0.15173E-03  7569   0.123E-01    0.358E-02
RMM:   4    -0.958976488816E+02   -0.78873E-05   -0.19573E-04  6691   0.425E-02    0.346E-02
RMM:   5    -0.958976437272E+02    0.51545E-05   -0.41381E-05  4911   0.208E-02
  65 F= -.98990818E+02 E0= -.98990337E+02  d E =-.979959E-03
       N       E                     dE             d eps       ncg     rms          rms(c)
DAV:   1    -0.958981221177E+02   -0.47324E-03   -0.12729E-01  5760   0.909E-01    0.867E-02
RMM:   2    -0.958984112558E+02   -0.28914E-03   -0.34395E-03  6019   0.194E-01    0.433E-02
RMM:   3    -0.958985534058E+02   -0.14215E-03   -0.11427E-03  7620   0.106E-01    0.422E-02
RMM:   4    -0.958985277792E+02    0.25627E-04   -0.15578E-04  6691   0.376E-02    0.312E-02
RMM:   5    -0.958985292692E+02   -0.14900E-05   -0.42389E-05  4677   0.185E-02
  66 F= -.98991113E+02 E0= -.98990646E+02  d E =-.127487E-02
       N       E                     dE             d eps       ncg     rms          rms(c)
DAV:   1    -0.958997536923E+02   -0.12259E-02   -0.13853E-01  5536   0.976E-01    0.150E-01
RMM:   2    -0.959001656038E+02   -0.41191E-03   -0.46856E-03  6081   0.218E-01    0.814E-02
RMM:   3    -0.959003827685E+02   -0.21716E-03   -0.12954E-03  7814   0.118E-01    0.659E-02
RMM:   4    -0.959003056296E+02    0.77139E-04   -0.18144E-04  7082   0.426E-02    0.390E-02
RMM:   5    -0.959003036236E+02    0.20060E-05   -0.51703E-05  5190   0.211E-02
  67 F= -.98992189E+02 E0= -.98991767E+02  d E =-.107622E-02
       N       E                     dE             d eps       ncg     rms          rms(c)
DAV:   1    -0.958988116008E+02    0.14940E-02   -0.12485E+00  5440   0.293E+00    0.451E-01
RMM:   2    -0.959025352377E+02   -0.37236E-02   -0.42146E-02  6260   0.654E-01    0.247E-01
RMM:   3    -0.959041776896E+02   -0.16425E-02   -0.11494E-02  8074   0.352E-01    0.174E-01
RMM:   4    -0.959038484248E+02    0.32926E-03   -0.15891E-03  8199   0.125E-01    0.117E-01
RMM:   5    -0.959037827958E+02    0.65629E-04   -0.41016E-04  7659   0.542E-02    0.634E-02
RMM:   6    -0.959038034300E+02   -0.20634E-04   -0.19532E-04  6306   0.314E-02    0.201E-02
RMM:   7    -0.959038074025E+02   -0.39725E-05   -0.80130E-05  5422   0.192E-02
  68 F= -.98993605E+02 E0= -.98993317E+02  d E =-.249223E-02
       N       E                     dE             d eps       ncg     rms          rms(c)
DAV:   1    -0.959041840193E+02   -0.38059E-03   -0.35824E-02  5984   0.479E-01    0.496E-02
RMM:   2    -0.959042727955E+02   -0.88776E-04   -0.10228E-03  6158   0.105E-01    0.238E-02
RMM:   3    -0.959043174099E+02   -0.44614E-04   -0.33942E-04  7366   0.578E-02    0.238E-02
RMM:   4    -0.959043097808E+02    0.76292E-05   -0.59985E-05  5205   0.231E-02
  69 F= -.98993839E+02 E0= -.98993585E+02  d E =-.233483E-03
       N       E                     dE             d eps       ncg     rms          rms(c)
DAV:   1    -0.959045943911E+02   -0.27698E-03   -0.24329E-01  5536   0.124E+00    0.123E-01
RMM:   2    -0.959051664039E+02   -0.57201E-03   -0.65409E-03  6096   0.269E-01    0.619E-02
RMM:   3    -0.959054315741E+02   -0.26517E-03   -0.21434E-03  7788   0.147E-01    0.596E-02
RMM:   4    -0.959053859338E+02    0.45640E-04   -0.26465E-04  7196   0.500E-02    0.467E-02
RMM:   5    -0.959053886956E+02   -0.27618E-05   -0.67717E-05  5506   0.230E-02
  70 F= -.98994218E+02 E0= -.98994051E+02  d E =-.612715E-03
       N       E                     dE             d eps       ncg     rms          rms(c)
DAV:   1    -0.959035090337E+02    0.18769E-02   -0.97004E-01  5440   0.248E+00    0.261E-01
RMM:   2    -0.959057499736E+02   -0.22409E-02   -0.26024E-02  6196   0.537E-01    0.126E-01
RMM:   3    -0.959068281876E+02   -0.10782E-02   -0.85716E-03  7908   0.295E-01    0.114E-01
RMM:   4    -0.959066333752E+02    0.19481E-03   -0.10362E-03  7892   0.983E-02    0.866E-02
RMM:   5    -0.959066313440E+02    0.20312E-05   -0.24644E-04  7053   0.417E-02    0.631E-02
RMM:   6    -0.959066539735E+02   -0.22630E-04   -0.13239E-04  5744   0.264E-02    0.194E-02
RMM:   7    -0.959066629086E+02   -0.89350E-05   -0.55119E-05  4678   0.160E-02
  71 F= -.98994101E+02 E0= -.98994091E+02  d E =-.495912E-03
       N       E                     dE             d eps       ncg     rms          rms(c)
DAV:   1    -0.959044514419E+02    0.22025E-02   -0.46144E-01  5448   0.171E+00    0.173E-01
RMM:   2    -0.959055026938E+02   -0.10513E-02   -0.12108E-02  6061   0.370E-01    0.832E-02
RMM:   3    -0.959059870945E+02   -0.48440E-03   -0.40063E-03  7772   0.200E-01    0.725E-02
RMM:   4    -0.959059215527E+02    0.65542E-04   -0.44369E-04  7465   0.651E-02    0.597E-02
RMM:   5    -0.959059151954E+02    0.63573E-05   -0.85376E-05  6045   0.274E-02
  72 F= -.98994311E+02 E0= -.98994193E+02  d E =-.706153E-03
       N       E                     dE             d eps       ncg     rms          rms(c)
DAV:   1    -0.959059905757E+02   -0.69023E-04   -0.11641E-01  5680   0.861E-01    0.765E-02
RMM:   2    -0.959062685751E+02   -0.27800E-03   -0.31081E-03  5953   0.184E-01    0.350E-02
RMM:   3    -0.959063652462E+02   -0.96671E-04   -0.96213E-04  7433   0.984E-02    0.289E-02
RMM:   4    -0.959063736888E+02   -0.84426E-05   -0.10595E-04  6314   0.323E-02    0.305E-02
RMM:   5    -0.959063700924E+02    0.35964E-05   -0.23560E-05  4056   0.152E-02
  73 F= -.98994287E+02 E0= -.98994226E+02  d E =-.681421E-03
       N       E                     dE             d eps       ncg     rms          rms(c)
DAV:   1    -0.959059782525E+02    0.39544E-03   -0.42860E-02  5680   0.522E-01    0.497E-02
RMM:   2    -0.959060810605E+02   -0.10281E-03   -0.11527E-03  5865   0.112E-01    0.222E-02
RMM:   3    -0.959061193157E+02   -0.38255E-04   -0.35530E-04  6982   0.600E-02    0.179E-02
RMM:   4    -0.959061200993E+02   -0.78370E-06   -0.42823E-05  4825   0.218E-02
  74 F= -.98994328E+02 E0= -.98994234E+02  d E =-.722788E-03
       N       E                     dE             d eps       ncg     rms          rms(c)
DAV:   1    -0.959062436179E+02   -0.12430E-03   -0.28567E-03  5960   0.138E-01    0.240E-02
RMM:   2    -0.959062509596E+02   -0.73417E-05   -0.78696E-05  5123   0.304E-02
  75 F= -.98994388E+02 E0= -.98994304E+02  d E =-.599801E-04
       N       E                     dE             d eps       ncg     rms          rms(c)
DAV:   1    -0.959064691267E+02   -0.22551E-03   -0.11198E-02  5664   0.264E-01    0.264E-02
RMM:   2    -0.959064946444E+02   -0.25518E-04   -0.28163E-04  5697   0.573E-02    0.135E-02
RMM:   3    -0.959065086860E+02   -0.14042E-04   -0.10214E-04  5724   0.322E-02    0.137E-02
RMM:   4    -0.959065049734E+02    0.37126E-05   -0.15037E-05  3174   0.135E-02
  76 F= -.98994505E+02 E0= -.98994440E+02  d E =-.177151E-03
       N       E                     dE             d eps       ncg     rms          rms(c)
DAV:   1    -0.959068471056E+02   -0.33842E-03   -0.43621E-02  5624   0.520E-01    0.525E-02
RMM:   2    -0.959069421528E+02   -0.95047E-04   -0.10678E-03  5903   0.113E-01    0.255E-02
RMM:   3    -0.959069913175E+02   -0.49165E-04   -0.38539E-04  7213   0.625E-02    0.250E-02
RMM:   4    -0.959069832217E+02    0.80958E-05   -0.46442E-05  5121   0.225E-02
  77 F= -.98994710E+02 E0= -.98994684E+02  d E =-.382050E-03
       N       E                     dE             d eps       ncg     rms          rms(c)
DAV:   1    -0.959072931468E+02   -0.30183E-03   -0.17419E-01  5440   0.104E+00    0.105E-01
RMM:   2    -0.959076779689E+02   -0.38482E-03   -0.42677E-03  6028   0.225E-01    0.514E-02
RMM:   3    -0.959078695136E+02   -0.19154E-03   -0.15304E-03  7723   0.124E-01    0.496E-02
RMM:   4    -0.959078401579E+02    0.29356E-04   -0.17450E-04  6758   0.412E-02    0.406E-02
RMM:   5    -0.959078418927E+02   -0.17349E-05   -0.43971E-05  5035   0.194E-02
  78 F= -.98995023E+02 E0= -.98995075E+02  d E =-.695440E-03
       N       E                     dE             d eps       ncg     rms          rms(c)
DAV:   1    -0.959070161953E+02    0.82396E-03   -0.69426E-01  5440   0.208E+00    0.226E-01
RMM:   2    -0.959085269463E+02   -0.15108E-02   -0.16994E-02  6115   0.449E-01    0.104E-01
RMM:   3    -0.959092773437E+02   -0.75040E-03   -0.61207E-03  7916   0.249E-01    0.894E-02
RMM:   4    -0.959091800456E+02    0.97298E-04   -0.69185E-04  7751   0.807E-02    0.726E-02
RMM:   5    -0.959091773089E+02    0.27367E-05   -0.15834E-04  6502   0.345E-02    0.512E-02
RMM:   6    -0.959091925706E+02   -0.15262E-04   -0.90633E-05  5423   0.230E-02    0.214E-02
RMM:   7    -0.959091971315E+02   -0.45609E-05   -0.36255E-05  4196   0.135E-02
  79 F= -.98995294E+02 E0= -.98995486E+02  d E =-.965736E-03
       N       E                     dE             d eps       ncg     rms          rms(c)
DAV:   1    -0.959093242213E+02   -0.13165E-03   -0.26132E-03  6064   0.121E-01    0.233E-02
RMM:   2    -0.959093293299E+02   -0.51086E-05   -0.67023E-05  4842   0.261E-02
  80 F= -.98995406E+02 E0= -.98995606E+02  d E =-.112093E-03
       N       E                     dE             d eps       ncg     rms          rms(c)
DAV:   1    -0.959096046804E+02   -0.28046E-03   -0.23109E-02  5696   0.361E-01    0.711E-02
RMM:   2    -0.959096462191E+02   -0.41539E-04   -0.52984E-04  5862   0.719E-02    0.352E-02
RMM:   3    -0.959096692950E+02   -0.23076E-04   -0.16744E-04  6290   0.396E-02    0.195E-02
RMM:   4    -0.959096690301E+02    0.26484E-06   -0.31405E-05  4246   0.161E-02
  81 F= -.98995685E+02 E0= -.98995909E+02  d E =-.391540E-03
       N       E                     dE             d eps       ncg     rms          rms(c)
DAV:   1    -0.959098033219E+02   -0.13403E-03   -0.91799E-02  5600   0.721E-01    0.137E-01
RMM:   2    -0.959099765363E+02   -0.17321E-03   -0.21240E-03  6047   0.146E-01    0.687E-02
RMM:   3    -0.959100730907E+02   -0.96554E-04   -0.69092E-04  7458   0.795E-02    0.430E-02
RMM:   4    -0.959100581324E+02    0.14958E-04   -0.10205E-04  5892   0.295E-02    0.304E-02
RMM:   5    -0.959100558240E+02    0.23083E-05   -0.34286E-05  4406   0.154E-02
  82 F= -.98995952E+02 E0= -.98996214E+02  d E =-.657940E-03
       N       E                     dE             d eps       ncg     rms          rms(c)
DAV:   1    -0.959102245320E+02   -0.16640E-03   -0.11189E-02  5760   0.246E-01    0.728E-02
RMM:   2    -0.959102478258E+02   -0.23294E-04   -0.32885E-04  5851   0.506E-02    0.397E-02
RMM:   3    -0.959102579946E+02   -0.10169E-04   -0.76383E-05  5443   0.266E-02    0.134E-02
RMM:   4    -0.959102633383E+02   -0.53437E-05   -0.24708E-05  3961   0.136E-02
  83 F= -.98996143E+02 E0= -.98996419E+02  d E =-.191089E-03
       N       E                     dE             d eps       ncg     rms          rms(c)
DAV:   1    -0.959103283884E+02   -0.70394E-04   -0.10099E-01  5440   0.739E-01    0.209E-01
RMM:   2    -0.959105587954E+02   -0.23041E-03   -0.29096E-03  6168   0.148E-01    0.115E-01
RMM:   3    -0.959106990811E+02   -0.14029E-03   -0.65049E-04  7520   0.766E-02    0.584E-02
RMM:   4    -0.959106616954E+02    0.37386E-04   -0.12715E-04  6104   0.318E-02    0.351E-02
RMM:   5    -0.959106335798E+02    0.28116E-04   -0.42331E-05  4927   0.173E-02    0.148E-02
RMM:   6    -0.959106357039E+02   -0.21241E-05   -0.21895E-05  3741   0.109E-02
  84 F= -.98996466E+02 E0= -.98996764E+02  d E =-.514700E-03
       N       E                     dE             d eps       ncg     rms          rms(c)
DAV:   1    -0.959106283112E+02    0.52686E-05   -0.24281E-02  5696   0.360E-01    0.103E-01
RMM:   2    -0.959106805190E+02   -0.52208E-04   -0.70292E-04  6027   0.723E-02    0.565E-02
RMM:   3    -0.959107121583E+02   -0.31639E-04   -0.16075E-04  6254   0.373E-02    0.264E-02
RMM:   4    -0.959107099622E+02    0.21961E-05   -0.38824E-05  4809   0.173E-02
  85 F= -.98996517E+02 E0= -.98996833E+02  d E =-.565328E-03
       N       E                     dE             d eps       ncg     rms          rms(c)
DAV:   1    -0.959107529098E+02   -0.40751E-04   -0.29680E-02  5584   0.402E-01    0.705E-02
RMM:   2    -0.959108293117E+02   -0.76402E-04   -0.91398E-04  6021   0.831E-02    0.413E-02
RMM:   3    -0.959108699884E+02   -0.40677E-04   -0.22451E-04  6679   0.438E-02    0.334E-02
RMM:   4    -0.959108525327E+02    0.17456E-04   -0.40916E-05  4949   0.187E-02    0.168E-02
RMM:   5    -0.959108529444E+02   -0.41172E-06   -0.19807E-05  3738   0.112E-02
  86 F= -.98996640E+02 E0= -.98996970E+02  d E =-.122717E-03
