       N       E                     dE             d eps       ncg     rms          rms(c)
DAV:   1     0.232528202816E+04    0.23253E+04   -0.93759E+04  5776   0.161E+03
DAV:   2     0.308671892207E+03   -0.20166E+04   -0.19616E+04  5728   0.463E+02
DAV:   3    -0.510712022289E+02   -0.35974E+03   -0.34951E+03  6224   0.204E+02
DAV:   4    -0.887718650160E+02   -0.37701E+02   -0.35296E+02  7096   0.572E+01
DAV:   5    -0.918904725464E+02   -0.31186E+01   -0.30885E+01  8448   0.123E+01    0.425E+01
RMM:   6    -0.968868174234E+02   -0.49963E+01   -0.23813E+01  6202   0.835E+00    0.321E+01
RMM:   7    -0.935427960888E+02    0.33440E+01   -0.16627E+01  6590   0.680E+00    0.251E+01
RMM:   8    -0.872757128579E+02    0.62671E+01   -0.65639E+00  6628   0.539E+00    0.146E+01
RMM:   9    -0.838202392829E+02    0.34555E+01   -0.29941E+00  7221   0.355E+00    0.531E+00
RMM:  10    -0.836443501830E+02    0.17589E+00   -0.14429E+00  7363   0.218E+00    0.323E+00
RMM:  11    -0.836042641911E+02    0.40086E-01   -0.63975E-01  8866   0.146E+00    0.332E+00
RMM:  12    -0.835277699373E+02    0.76494E-01   -0.35648E-01  8753   0.110E+00    0.158E+00
RMM:  13    -0.835125234240E+02    0.15247E-01   -0.17681E-01  9452   0.668E-01    0.989E-01
RMM:  14    -0.835092201500E+02    0.33033E-02   -0.12069E-01  9562   0.455E-01    0.324E-01
RMM:  15    -0.835159145231E+02   -0.66944E-02   -0.56618E-02  9792   0.319E-01    0.318E-01
RMM:  16    -0.835174003240E+02   -0.14858E-02   -0.31518E-02  9506   0.264E-01    0.117E-01
RMM:  17    -0.835197631499E+02   -0.23628E-02   -0.23696E-02  9839   0.190E-01    0.800E-02
RMM:  18    -0.835214125462E+02   -0.16494E-02   -0.15260E-02  9687   0.148E-01    0.111E-01
RMM:  19    -0.835222155424E+02   -0.80300E-03   -0.10241E-02  9618   0.122E-01    0.421E-02
RMM:  20    -0.835230299709E+02   -0.81443E-03   -0.68014E-03  9591   0.965E-02    0.487E-02
RMM:  21    -0.835236265478E+02   -0.59658E-03   -0.48521E-03  9271   0.768E-02    0.220E-02
RMM:  22    -0.835240255106E+02   -0.39896E-03   -0.31686E-03  8458   0.606E-02    0.239E-02
RMM:  23    -0.835243758253E+02   -0.35031E-03   -0.22634E-03  7907   0.501E-02    0.251E-02
RMM:  24    -0.835246457535E+02   -0.26993E-03   -0.15821E-03  6778   0.405E-02    0.216E-02
RMM:  25    -0.835247938825E+02   -0.14813E-03   -0.11124E-03  5859   0.330E-02    0.224E-02
RMM:  26    -0.835248771178E+02   -0.83235E-04   -0.75518E-04  5187   0.268E-02    0.270E-02
RMM:  27    -0.835249316510E+02   -0.54533E-04   -0.55772E-04  4807   0.220E-02    0.327E-02
RMM:  28    -0.835250000115E+02   -0.68361E-04   -0.40238E-04  4684   0.181E-02    0.356E-02
RMM:  29    -0.835250315356E+02   -0.31524E-04   -0.28550E-04  4403   0.151E-02    0.417E-02
RMM:  30    -0.835250541280E+02   -0.22592E-04   -0.21958E-04  4029   0.127E-02    0.492E-02
RMM:  31    -0.835250685955E+02   -0.14467E-04   -0.16162E-04  3599   0.108E-02    0.478E-02
RMM:  32    -0.835250816813E+02   -0.13086E-04   -0.12441E-04  3273   0.943E-03    0.543E-02
RMM:  33    -0.835250893330E+02   -0.76517E-05   -0.90924E-05  2905   0.791E-03
   1 F= -.86626618E+02 E0= -.86624816E+02  d E =-.866266E+02
       N       E                     dE             d eps       ncg     rms          rms(c)
DAV:   1     0.144124676891E+02    0.97938E+02   -0.77457E+03  5728   0.187E+02    0.342E+01
RMM:   2    -0.216588831242E+02   -0.36071E+02   -0.54588E+02  8173   0.758E+01    0.260E+01
RMM:   3    -0.360356800855E+02   -0.14377E+02   -0.23002E+02  8076   0.328E+01    0.218E+01
RMM:   4    -0.348105236977E+02    0.12252E+01   -0.71384E+01  8437   0.197E+01    0.189E+01
RMM:   5    -0.340081398508E+02    0.80238E+00   -0.27667E+01  9105   0.120E+01    0.173E+01
RMM:   6    -0.296333995187E+02    0.43747E+01   -0.26929E+01  8594   0.855E+00    0.737E+00
RMM:   7    -0.326074232469E+02   -0.29740E+01   -0.10489E+01  9286   0.645E+00    0.173E+01
RMM:   8    -0.326257135093E+02   -0.18290E-01   -0.40802E+00  9870   0.375E+00    0.169E+01
RMM:   9    -0.336801864412E+02   -0.10545E+01   -0.28778E+00  9775   0.300E+00    0.186E+01
RMM:  10    -0.300340377119E+02    0.36461E+01   -0.48808E+00  8558   0.391E+00    0.406E+00
RMM:  11    -0.305059237338E+02   -0.47189E+00   -0.70346E+00  9216   0.391E+00    0.270E+00
RMM:  12    -0.308276867417E+02   -0.32176E+00   -0.40702E+00  9671   0.292E+00    0.259E+00
RMM:  13    -0.312017880086E+02   -0.37410E+00   -0.35603E+00  9741   0.252E+00    0.310E+00
RMM:  14    -0.314920941609E+02   -0.29031E+00   -0.34392E+00  9263   0.244E+00    0.315E+00
RMM:  15    -0.319662283913E+02   -0.47413E+00   -0.35080E+00  9576   0.231E+00    0.385E+00
RMM:  16    -0.325088878400E+02   -0.54266E+00   -0.38199E+00  9281   0.228E+00    0.474E+00
RMM:  17    -0.333523991518E+02   -0.84351E+00   -0.45079E+00  9234   0.240E+00    0.616E+00
RMM:  18    -0.334697048724E+02   -0.11731E+00   -0.34107E+00  9074   0.219E+00    0.634E+00
RMM:  19    -0.344787916859E+02   -0.10091E+01   -0.42167E+00  9244   0.232E+00    0.772E+00
RMM:  20    -0.348472352603E+02   -0.36844E+00   -0.35993E+00  9465   0.219E+00    0.828E+00
RMM:  21    -0.351905453635E+02   -0.34331E+00   -0.33229E+00  8635   0.208E+00    0.877E+00
RMM:  22    -0.354908205609E+02   -0.30028E+00   -0.30627E+00  8381   0.201E+00    0.920E+00
RMM:  23    -0.359057495267E+02   -0.41493E+00   -0.30782E+00  8454   0.197E+00    0.972E+00
RMM:  24    -0.362081650534E+02   -0.30242E+00   -0.29005E+00  8229   0.190E+00    0.101E+01
RMM:  25    -0.364906815279E+02   -0.28252E+00   -0.28388E+00  7977   0.184E+00    0.105E+01
RMM:  26    -0.367678674777E+02   -0.27719E+00   -0.26913E+00  7787   0.178E+00    0.108E+01
RMM:  27    -0.370397424623E+02   -0.27187E+00   -0.26275E+00  7660   0.173E+00    0.112E+01
RMM:  28    -0.372916448480E+02   -0.25190E+00   -0.25079E+00  7447   0.168E+00    0.115E+01
RMM:  29    -0.375353598401E+02   -0.24371E+00   -0.24206E+00  7263   0.163E+00    0.118E+01
RMM:  30    -0.377566766544E+02   -0.22132E+00   -0.22857E+00  7228   0.158E+00    0.121E+01
RMM:  31    -0.379765764551E+02   -0.21990E+00   -0.21620E+00  7135   0.153E+00    0.124E+01
RMM:  32    -0.381785231765E+02   -0.20195E+00   -0.20180E+00  7031   0.149E+00    0.127E+01
RMM:  33    -0.383745984629E+02   -0.19608E+00   -0.19127E+00  6910   0.144E+00    0.130E+01
RMM:  34    -0.385434335278E+02   -0.16884E+00   -0.18012E+00  6843   0.140E+00    0.132E+01
RMM:  35    -0.387129420560E+02   -0.16951E+00   -0.17116E+00  6769   0.136E+00    0.134E+01
RMM:  36    -0.388744539273E+02   -0.16151E+00   -0.16313E+00  6750   0.132E+00    0.137E+01
RMM:  37    -0.390215588994E+02   -0.14710E+00   -0.15656E+00  6567   0.128E+00    0.139E+01
RMM:  38    -0.391921960552E+02   -0.17064E+00   -0.15004E+00  6582   0.125E+00    0.141E+01
RMM:  39    -0.393150096228E+02   -0.12281E+00   -0.14173E+00  6650   0.122E+00    0.143E+01
RMM:  40    -0.394268039080E+02   -0.11179E+00   -0.13617E+00  6483   0.119E+00    0.145E+01
RMM:  41    -0.395591379686E+02   -0.13233E+00   -0.13122E+00  6273   0.116E+00    0.147E+01
RMM:  42    -0.396923552448E+02   -0.13322E+00   -0.12702E+00  6116   0.113E+00    0.149E+01
RMM:  43    -0.398040346568E+02   -0.11168E+00   -0.12187E+00  6136   0.111E+00    0.150E+01
RMM:  44    -0.399105076963E+02   -0.10647E+00   -0.11741E+00  5951   0.108E+00    0.152E+01
RMM:  45    -0.400192608199E+02   -0.10875E+00   -0.11302E+00  5888   0.106E+00    0.154E+01
RMM:  46    -0.401273159764E+02   -0.10806E+00   -0.10917E+00  5740   0.103E+00    0.155E+01
RMM:  47    -0.415514763678E+02   -0.14242E+01   -0.16436E+00  9298   0.130E+00    0.165E+01
RMM:  48    -0.417811735321E+02   -0.22970E+00   -0.12648E+00  8286   0.117E+00    0.168E+01
RMM:  49    -0.418518500550E+02   -0.70677E-01   -0.12718E+00  7114   0.112E+00    0.171E+01
RMM:  50    -0.425541662681E+02   -0.70232E+00   -0.13465E+00  7790   0.115E+00    0.175E+01
RMM:  51    -0.428668847223E+02   -0.31272E+00   -0.12792E+00  7184   0.112E+00    0.178E+01
RMM:  52    -0.409817426262E+02    0.18851E+01   -0.10762E+00  9740   0.118E+00    0.170E+01
RMM:  53    -0.415061670056E+02   -0.52442E+00   -0.88791E-01  9539   0.106E+00    0.172E+01
RMM:  54    -0.419624891628E+02   -0.45632E+00   -0.95318E-01  8862   0.101E+00    0.174E+01
RMM:  55    -0.419629689151E+02   -0.47975E-03   -0.81806E-01  7875   0.952E-01    0.175E+01
RMM:  56    -0.420016582877E+02   -0.38689E-01   -0.81299E-01  6681   0.916E-01    0.176E+01
RMM:  57    -0.400366861235E+02    0.19650E+01   -0.97689E-01  9938   0.128E+00    0.166E+01
RMM:  58    -0.391416641153E+02    0.89502E+00   -0.70230E-01  9510   0.942E-01    0.164E+01
RMM:  59    -0.364909870026E+02    0.26507E+01   -0.96421E-01  9743   0.103E+00    0.154E+01
RMM:  60    -0.352204404034E+02    0.12705E+01   -0.95496E-01  9132   0.940E-01    0.145E+01
RMM:  61    -0.346773153565E+02    0.54313E+00   -0.66846E-01  8752   0.846E-01    0.139E+01
RMM:  62    -0.328586649142E+02    0.18187E+01   -0.14705E+00  9817   0.116E+00    0.112E+01
RMM:  63    -0.326803491472E+02    0.17832E+00   -0.10585E+00  9509   0.101E+00    0.102E+01
RMM:  64    -0.327690133920E+02   -0.88664E-01   -0.81749E-01  8426   0.864E-01    0.100E+01
RMM:  65    -0.328046992336E+02   -0.35686E-01   -0.73019E-01  8321   0.805E-01    0.972E+00
RMM:  66    -0.330711259444E+02   -0.26643E+00   -0.53050E-01  7694   0.735E-01    0.102E+01
RMM:  67    -0.380057781273E+02   -0.49347E+01   -0.15476E+00  9954   0.168E+00    0.139E+01
RMM:  68    -0.379435892956E+02    0.62189E-01   -0.69313E-01  9804   0.105E+00    0.142E+01
RMM:  69    -0.363500081756E+02    0.15936E+01   -0.42092E-01  9148   0.800E-01    0.137E+01
RMM:  70    -0.350736533188E+02    0.12764E+01   -0.40401E-01  9551   0.748E-01    0.129E+01
RMM:  71    -0.366750287011E+02   -0.16014E+01   -0.29402E-01  9133   0.723E-01    0.140E+01
RMM:  72    -0.435785443424E+02   -0.69035E+01   -0.33282E+00  9922   0.181E+00    0.167E+01
RMM:  73    -0.402831211181E+02    0.32954E+01   -0.79020E-01  9754   0.132E+00    0.161E+01
RMM:  74    -0.393572181998E+02    0.92590E+00   -0.61259E-01  9393   0.872E-01    0.159E+01
RMM:  75    -0.392544140709E+02    0.10280E+00   -0.43517E-01  9371   0.764E-01    0.159E+01
RMM:  76    -0.377257590113E+02    0.15287E+01   -0.52578E-01  9552   0.782E-01    0.152E+01
RMM:  77    -0.362970236529E+02    0.14287E+01   -0.51088E-01  9953   0.997E-01    0.145E+01
RMM:  78    -0.395702903959E+02   -0.32733E+01   -0.78635E-01  9954   0.114E+00    0.163E+01
RMM:  79    -0.421973650133E+02   -0.26271E+01   -0.16171E+00  9904   0.116E+00    0.176E+01
RMM:  80    -0.437263141142E+02   -0.15289E+01   -0.15109E+00  9506   0.115E+00    0.184E+01
RMM:  81    -0.464274397756E+02   -0.27011E+01   -0.30460E+00  9871   0.155E+00    0.198E+01
RMM:  82    -0.497422150192E+02   -0.33148E+01   -0.41224E+00  9911   0.183E+00    0.214E+01
RMM:  83    -0.534502959622E+02   -0.37081E+01   -0.53214E+00  9821   0.205E+00    0.229E+01
RMM:  84    -0.548579733961E+02   -0.14077E+01   -0.45850E+00  9820   0.200E+00    0.238E+01
RMM:  85    -0.562544320960E+02   -0.13965E+01   -0.46225E+00  9730   0.197E+00    0.247E+01
RMM:  86    -0.568189998617E+02   -0.56457E+00   -0.35153E+00  9419   0.177E+00    0.251E+01
RMM:  87    -0.336486477175E+02    0.23170E+02   -0.85588E+00  9951   0.342E+00    0.147E+01
RMM:  88    -0.330303203065E+02    0.61833E+00   -0.28941E+00  9929   0.182E+00    0.129E+01
RMM:  89    -0.333067794383E+02   -0.27646E+00   -0.15991E+00  9637   0.121E+00    0.129E+01
RMM:  90    -0.328577600783E+02    0.44902E+00   -0.17392E+00  9681   0.115E+00    0.118E+01
RMM:  91    -0.332333157035E+02   -0.37556E+00   -0.94855E-01  9294   0.946E-01    0.121E+01
RMM:  92    -0.449739102042E+02   -0.11741E+02   -0.81501E+00  9969   0.278E+00    0.236E+01
RMM:  93    -0.414528855836E+02    0.35210E+01   -0.32318E+00  9948   0.172E+00    0.229E+01
RMM:  94    -0.382384754130E+02    0.32144E+01   -0.25717E+00  9748   0.133E+00    0.208E+01
RMM:  95    -0.376339836926E+02    0.60449E+00   -0.19056E+00  9797   0.115E+00    0.197E+01
RMM:  96    -0.379046378280E+02   -0.27065E+00   -0.18435E+00  8987   0.997E-01    0.200E+01
RMM:  97    -0.430725171094E+02   -0.51679E+01   -0.20920E+00 10023   0.133E+00    0.233E+01
RMM:  98    -0.457482943608E+02   -0.26758E+01   -0.18862E+00  9944   0.120E+00    0.242E+01
RMM:  99    -0.447515483533E+02    0.99675E+00   -0.14901E+00  9953   0.111E+00    0.242E+01
RMM: 100    -0.424990548864E+02    0.22525E+01   -0.15060E+00  9969   0.108E+00
   2 F= -.45686996E+02 E0= -.45686019E+02  d E =0.409396E+02
       N       E                     dE             d eps       ncg     rms          rms(c)
DAV:   1    -0.664180464365E+02   -0.21666E+02   -0.49344E+02  7672   0.486E+01    0.269E+01
RMM:   2    -0.107886300064E+03   -0.41468E+02   -0.23353E+02  6788   0.441E+01    0.404E+01
RMM:   3    -0.697845314976E+02    0.38102E+02   -0.34627E+01  6871   0.144E+01    0.239E+01
RMM:   4    -0.538741969320E+02    0.15910E+02   -0.11598E+01  7034   0.701E+00    0.152E+01
RMM:   5    -0.532852507684E+02    0.58895E+00   -0.70755E+00  7830   0.449E+00    0.155E+01
RMM:   6    -0.501107253611E+02    0.31745E+01   -0.24096E+00  7978   0.304E+00    0.634E+00
RMM:   7    -0.516909452124E+02   -0.15802E+01   -0.18591E+00  8090   0.242E+00    0.112E+01
RMM:   8    -0.500064345836E+02    0.16845E+01   -0.10265E+00  8254   0.175E+00    0.367E+00
RMM:   9    -0.500947723012E+02   -0.88338E-01   -0.58530E-01  9175   0.116E+00    0.367E+00
RMM:  10    -0.501277499483E+02   -0.32978E-01   -0.41642E-01  9177   0.912E-01    0.339E+00
RMM:  11    -0.501020769581E+02    0.25673E-01   -0.45972E-01  8135   0.929E-01    0.148E+00
RMM:  12    -0.501369113562E+02   -0.34834E-01   -0.35097E-01  8419   0.841E-01    0.119E+00
RMM:  13    -0.501607978200E+02   -0.23886E-01   -0.24797E-01  8562   0.692E-01    0.104E+00
RMM:  14    -0.501788541338E+02   -0.18056E-01   -0.22977E-01  8377   0.653E-01    0.583E-01
RMM:  15    -0.502013255835E+02   -0.22471E-01   -0.20695E-01  8400   0.588E-01    0.592E-01
RMM:  16    -0.502158589406E+02   -0.14533E-01   -0.16984E-01  8122   0.540E-01    0.300E-01
RMM:  17    -0.502310740952E+02   -0.15215E-01   -0.15335E-01  7787   0.507E-01    0.195E-01
RMM:  18    -0.502444744194E+02   -0.13400E-01   -0.13327E-01  7698   0.483E-01    0.449E-02
RMM:  19    -0.502574009814E+02   -0.12927E-01   -0.12618E-01  7418   0.461E-01    0.128E-01
RMM:  20    -0.502689198947E+02   -0.11519E-01   -0.11527E-01  7328   0.443E-01    0.165E-01
RMM:  21    -0.502796104972E+02   -0.10691E-01   -0.10770E-01  7120   0.427E-01    0.179E-01
RMM:  22    -0.502895456673E+02   -0.99352E-02   -0.10010E-01  7155   0.415E-01    0.194E-01
RMM:  23    -0.502986573160E+02   -0.91116E-02   -0.92556E-02  6718   0.403E-01    0.198E-01
RMM:  24    -0.503072520796E+02   -0.85948E-02   -0.86479E-02  6384   0.393E-01    0.230E-01
RMM:  25    -0.503152456233E+02   -0.79935E-02   -0.81113E-02  6691   0.384E-01    0.253E-01
RMM:  26    -0.503228229695E+02   -0.75773E-02   -0.76641E-02  6163   0.376E-01    0.288E-01
RMM:  27    -0.503299617836E+02   -0.71388E-02   -0.72763E-02  5968   0.369E-01    0.316E-01
RMM:  28    -0.503367634617E+02   -0.68017E-02   -0.69295E-02  5872   0.362E-01    0.347E-01
RMM:  29    -0.503432404060E+02   -0.64769E-02   -0.66393E-02  5861   0.356E-01    0.373E-01
RMM:  30    -0.503493607110E+02   -0.61203E-02   -0.62912E-02  5762   0.350E-01    0.397E-01
RMM:  31    -0.503552060478E+02   -0.58453E-02   -0.60248E-02  5673   0.345E-01    0.419E-01
RMM:  32    -0.503607614208E+02   -0.55554E-02   -0.57411E-02  5459   0.339E-01    0.440E-01
RMM:  33    -0.503660729639E+02   -0.53115E-02   -0.55037E-02  5422   0.334E-01    0.460E-01
RMM:  34    -0.503711078449E+02   -0.50349E-02   -0.52310E-02  5369   0.330E-01    0.479E-01
RMM:  35    -0.503759671770E+02   -0.48593E-02   -0.50606E-02  5311   0.326E-01    0.497E-01
RMM:  36    -0.503806484034E+02   -0.46812E-02   -0.48857E-02  5166   0.321E-01    0.514E-01
RMM:  37    -0.503851469641E+02   -0.44986E-02   -0.47085E-02  5076   0.317E-01    0.531E-01
RMM:  38    -0.503894318299E+02   -0.42849E-02   -0.45005E-02  4992   0.314E-01    0.546E-01
RMM:  39    -0.503936083562E+02   -0.41765E-02   -0.43960E-02  4913   0.310E-01    0.561E-01
RMM:  40    -0.503977502550E+02   -0.41419E-02   -0.43640E-02  4840   0.307E-01    0.576E-01
RMM:  41    -0.504016968352E+02   -0.39466E-02   -0.41749E-02  4805   0.304E-01    0.590E-01
RMM:  42    -0.504055163479E+02   -0.38195E-02   -0.40541E-02  4735   0.301E-01    0.603E-01
RMM:  43    -0.504092621948E+02   -0.37458E-02   -0.39823E-02  4652   0.298E-01    0.616E-01
RMM:  44    -0.504128872436E+02   -0.36250E-02   -0.38638E-02  4607   0.295E-01    0.629E-01
RMM:  45    -0.504164392553E+02   -0.35520E-02   -0.37951E-02  4498   0.292E-01    0.641E-01
RMM:  46    -0.504198909270E+02   -0.34517E-02   -0.36951E-02  4508   0.290E-01    0.652E-01
RMM:  47    -0.504231934966E+02   -0.33026E-02   -0.36106E-02  4422   0.287E-01    0.658E-01
RMM:  48    -0.504264832508E+02   -0.32898E-02   -0.35309E-02  4371   0.285E-01    0.668E-01
RMM:  49    -0.504297007740E+02   -0.32175E-02   -0.34730E-02  4341   0.282E-01    0.678E-01
RMM:  50    -0.504327935128E+02   -0.30927E-02   -0.33510E-02  4303   0.280E-01    0.688E-01
RMM:  51    -0.504358255408E+02   -0.30320E-02   -0.32920E-02  4266   0.278E-01    0.698E-01
RMM:  52    -0.504387780016E+02   -0.29525E-02   -0.31909E-02  4267   0.276E-01    0.710E-01
RMM:  53    -0.504416346778E+02   -0.28567E-02   -0.31250E-02  4171   0.274E-01    0.719E-01
RMM:  54    -0.504444173054E+02   -0.27826E-02   -0.30521E-02  4169   0.272E-01    0.728E-01
RMM:  55    -0.504471336457E+02   -0.27163E-02   -0.29882E-02  4082   0.270E-01    0.736E-01
RMM:  56    -0.504497987015E+02   -0.26651E-02   -0.29332E-02  4093   0.268E-01    0.745E-01
RMM:  57    -0.504524287712E+02   -0.26301E-02   -0.28948E-02  3942   0.266E-01    0.754E-01
RMM:  58    -0.504550187198E+02   -0.25899E-02   -0.28567E-02  3973   0.265E-01    0.763E-01
RMM:  59    -0.504575640183E+02   -0.25453E-02   -0.28217E-02  3881   0.263E-01    0.771E-01
RMM:  60    -0.504600896692E+02   -0.25257E-02   -0.27954E-02  3887   0.261E-01    0.779E-01
RMM:  61    -0.504625785921E+02   -0.24889E-02   -0.27666E-02  3844   0.260E-01    0.787E-01
RMM:  62    -0.504650712192E+02   -0.24926E-02   -0.27382E-02  5522   0.263E-01    0.793E-01
RMM:  63    -0.504674912329E+02   -0.24200E-02   -0.27312E-02  4694   0.258E-01    0.797E-01
RMM:  64    -0.504698580894E+02   -0.23669E-02   -0.26966E-02  4054   0.256E-01    0.802E-01
RMM:  65    -0.504722346062E+02   -0.23765E-02   -0.26755E-02  4175   0.255E-01    0.808E-01
RMM:  66    -0.504745892558E+02   -0.23546E-02   -0.26631E-02  4188   0.254E-01    0.813E-01
RMM:  67    -0.504768559284E+02   -0.22667E-02   -0.26344E-02  5669   0.256E-01    0.814E-01
RMM:  68    -0.504790265100E+02   -0.21706E-02   -0.26242E-02  4859   0.253E-01    0.811E-01
RMM:  69    -0.504810714395E+02   -0.20449E-02   -0.25648E-02  4838   0.250E-01    0.802E-01
RMM:  70    -0.504831323052E+02   -0.20609E-02   -0.26021E-02  4876   0.250E-01    0.791E-01
RMM:  71    -0.504852376068E+02   -0.21053E-02   -0.24275E-02  4283   0.248E-01    0.793E-01
RMM:  72    -0.504865024377E+02   -0.12648E-02   -0.25509E-02  6021   0.253E-01    0.734E-01
RMM:  73    -0.504882970665E+02   -0.17946E-02   -0.24022E-02  5726   0.249E-01    0.710E-01
RMM:  74    -0.504903077428E+02   -0.20107E-02   -0.23977E-02  5084   0.246E-01    0.703E-01
RMM:  75    -0.504923272984E+02   -0.20196E-02   -0.23603E-02  4734   0.245E-01    0.703E-01
RMM:  76    -0.504943722172E+02   -0.20449E-02   -0.23489E-02  4669   0.244E-01    0.707E-01
RMM:  77    -0.504956330710E+02   -0.12609E-02   -0.23342E-02  5732   0.246E-01    0.655E-01
RMM:  78    -0.504970675994E+02   -0.14345E-02   -0.23235E-02  5801   0.245E-01    0.612E-01
RMM:  79    -0.504992134098E+02   -0.21458E-02   -0.22571E-02  5112   0.242E-01    0.622E-01
RMM:  80    -0.505012642637E+02   -0.20509E-02   -0.22410E-02  4253   0.240E-01    0.634E-01
RMM:  81    -0.505032045956E+02   -0.19403E-02   -0.22164E-02  4184   0.239E-01    0.640E-01
RMM:  82    -0.505045364667E+02   -0.13319E-02   -0.22570E-02  5599   0.242E-01    0.595E-01
RMM:  83    -0.505064014767E+02   -0.18650E-02   -0.21741E-02  5018   0.239E-01    0.593E-01
RMM:  84    -0.505082436044E+02   -0.18421E-02   -0.21862E-02  4700   0.235E-01    0.593E-01
RMM:  85    -0.505100212553E+02   -0.17777E-02   -0.21600E-02  4403   0.235E-01    0.590E-01
RMM:  86    -0.505118061995E+02   -0.17849E-02   -0.21571E-02  4360   0.234E-01    0.589E-01
RMM:  87    -0.505123652626E+02   -0.55906E-03   -0.22478E-02  6096   0.247E-01    0.473E-01
RMM:  88    -0.505141193550E+02   -0.17541E-02   -0.20636E-02  5880   0.242E-01    0.460E-01
RMM:  89    -0.505158583484E+02   -0.17390E-02   -0.21032E-02  5770   0.236E-01    0.450E-01
RMM:  90    -0.505176750709E+02   -0.18167E-02   -0.20403E-02  5030   0.234E-01    0.457E-01
RMM:  91    -0.505195093113E+02   -0.18342E-02   -0.20505E-02  4699   0.232E-01    0.466E-01
RMM:  92    -0.505215037761E+02   -0.19945E-02   -0.20857E-02  5805   0.236E-01    0.488E-01
RMM:  93    -0.505230230050E+02   -0.15192E-02   -0.20114E-02  5199   0.234E-01    0.472E-01
RMM:  94    -0.505247163831E+02   -0.16934E-02   -0.20416E-02  4672   0.229E-01    0.470E-01
RMM:  95    -0.505263259324E+02   -0.16095E-02   -0.20070E-02  4599   0.229E-01    0.463E-01
RMM:  96    -0.505280123228E+02   -0.16864E-02   -0.20195E-02  4469   0.228E-01    0.462E-01
RMM:  97    -0.505293596512E+02   -0.13473E-02   -0.20236E-02  5434   0.230E-01    0.428E-01
RMM:  98    -0.505311366719E+02   -0.17770E-02   -0.19793E-02  4776   0.228E-01    0.438E-01
RMM:  99    -0.505328728725E+02   -0.17362E-02   -0.20151E-02  4475   0.226E-01    0.445E-01
RMM: 100    -0.505345411534E+02   -0.16683E-02   -0.19894E-02  3974   0.225E-01
   3 F= -.53709580E+02 E0= -.53701365E+02  d E =0.329170E+02
       N       E                     dE             d eps       ncg     rms          rms(c)
DAV:   1    -0.557893191502E+02   -0.52564E+01   -0.42369E+02  6728   0.409E+01    0.939E+00
RMM:   2    -0.578761452390E+02   -0.20868E+01    0.41462E-01  6735   0.358E+01    0.123E+01
RMM:   3    -0.561682810749E+02    0.17079E+01   -0.12016E+01  7324   0.776E+00    0.493E+00
RMM:   4    -0.563536719593E+02   -0.18539E+00   -0.32077E+00  7476   0.356E+00    0.657E+00
RMM:   5    -0.560518832812E+02    0.30179E+00   -0.10558E+00  7989   0.182E+00    0.359E+00
RMM:   6    -0.560686703813E+02   -0.16787E-01   -0.73587E-01  8005   0.141E+00    0.317E+00
RMM:   7    -0.560909877997E+02   -0.22317E-01   -0.61691E-01  8268   0.117E+00    0.301E+00
RMM:   8    -0.560439803603E+02    0.47007E-01   -0.39261E-01  8410   0.933E-01    0.860E-01
RMM:   9    -0.560671057979E+02   -0.23125E-01   -0.24451E-01  8714   0.726E-01    0.264E-01
RMM:  10    -0.560873034039E+02   -0.20198E-01   -0.20827E-01  8538   0.607E-01    0.190E-01
RMM:  11    -0.561075118138E+02   -0.20208E-01   -0.19912E-01  8177   0.538E-01    0.142E-01
RMM:  12    -0.561261128955E+02   -0.18601E-01   -0.18387E-01  7784   0.491E-01    0.407E-02
RMM:  13    -0.561433460627E+02   -0.17233E-01   -0.16895E-01  7579   0.453E-01    0.243E-02
RMM:  14    -0.561589268865E+02   -0.15581E-01   -0.15289E-01  7420   0.428E-01    0.277E-02
RMM:  15    -0.561733215127E+02   -0.14395E-01   -0.14266E-01  7259   0.404E-01    0.555E-02
RMM:  16    -0.561864781067E+02   -0.13157E-01   -0.12923E-01  7156   0.388E-01    0.584E-02
RMM:  17    -0.561990103816E+02   -0.12532E-01   -0.12403E-01  7076   0.372E-01    0.635E-02
RMM:  18    -0.562106322641E+02   -0.11622E-01   -0.11551E-01  6988   0.358E-01    0.799E-02
RMM:  19    -0.562219803985E+02   -0.11348E-01   -0.11283E-01  6908   0.347E-01    0.747E-02
RMM:  20    -0.562327272660E+02   -0.10747E-01   -0.10687E-01  6742   0.336E-01    0.754E-02
RMM:  21    -0.562427642160E+02   -0.10037E-01   -0.10012E-01  6224   0.326E-01    0.853E-02
RMM:  22    -0.562518074568E+02   -0.90432E-02   -0.90268E-02  5995   0.318E-01    0.977E-02
RMM:  23    -0.562604801160E+02   -0.86727E-02   -0.86773E-02  5956   0.311E-01    0.108E-01
RMM:  24    -0.562685093392E+02   -0.80292E-02   -0.80434E-02  6373   0.305E-01    0.109E-01
RMM:  25    -0.562762428311E+02   -0.77335E-02   -0.77608E-02  5714   0.298E-01    0.118E-01
RMM:  26    -0.562834465563E+02   -0.72037E-02   -0.72325E-02  5437   0.292E-01    0.131E-01
RMM:  27    -0.562904769642E+02   -0.70304E-02   -0.70811E-02  5440   0.288E-01    0.140E-01
RMM:  28    -0.562971482135E+02   -0.66712E-02   -0.67249E-02  5328   0.283E-01    0.150E-01
RMM:  29    -0.563036208775E+02   -0.64727E-02   -0.65406E-02  5322   0.279E-01    0.160E-01
RMM:  30    -0.563097605530E+02   -0.61397E-02   -0.62098E-02  5230   0.274E-01    0.171E-01
RMM:  31    -0.563157836395E+02   -0.60231E-02   -0.61055E-02  5092   0.270E-01    0.182E-01
RMM:  32    -0.563215200569E+02   -0.57364E-02   -0.58203E-02  4972   0.267E-01    0.195E-01
RMM:  33    -0.563271844466E+02   -0.56644E-02   -0.57574E-02  4925   0.263E-01    0.207E-01
RMM:  34    -0.563326461885E+02   -0.54617E-02   -0.55581E-02  4918   0.260E-01    0.220E-01
RMM:  35    -0.563380516191E+02   -0.54054E-02   -0.55125E-02  4792   0.257E-01    0.233E-01
RMM:  36    -0.563432537459E+02   -0.52021E-02   -0.53145E-02  4863   0.254E-01    0.247E-01
RMM:  37    -0.563483665259E+02   -0.51128E-02   -0.52357E-02  4785   0.251E-01    0.260E-01
RMM:  38    -0.563532854551E+02   -0.49189E-02   -0.50470E-02  4650   0.248E-01    0.274E-01
RMM:  39    -0.563581413507E+02   -0.48559E-02   -0.49979E-02  4707   0.246E-01    0.288E-01
RMM:  40    -0.563628172560E+02   -0.46759E-02   -0.48291E-02  4656   0.243E-01    0.303E-01
RMM:  41    -0.563675201844E+02   -0.47029E-02   -0.48700E-02  4634   0.241E-01    0.318E-01
RMM:  42    -0.563724675671E+02   -0.49474E-02   -0.51268E-02  4580   0.239E-01    0.335E-01
RMM:  43    -0.563771365444E+02   -0.46690E-02   -0.48655E-02  4600   0.237E-01    0.351E-01
RMM:  44    -0.563816393116E+02   -0.45028E-02   -0.47084E-02  4583   0.234E-01    0.368E-01
RMM:  45    -0.563861866297E+02   -0.45473E-02   -0.47613E-02  4503   0.232E-01    0.385E-01
RMM:  46    -0.563906362116E+02   -0.44496E-02   -0.46750E-02  4484   0.230E-01    0.402E-01
RMM:  47    -0.563949545619E+02   -0.43184E-02   -0.45471E-02  4548   0.228E-01    0.420E-01
RMM:  48    -0.563991333519E+02   -0.41788E-02   -0.44234E-02  4454   0.226E-01    0.437E-01
RMM:  49    -0.564031733773E+02   -0.40400E-02   -0.42868E-02  4398   0.224E-01    0.453E-01
RMM:  50    -0.564070469140E+02   -0.38735E-02   -0.41222E-02  4382   0.222E-01    0.468E-01
RMM:  51    -0.564107798620E+02   -0.37329E-02   -0.39824E-02  4370   0.220E-01    0.483E-01
RMM:  52    -0.564143494334E+02   -0.35696E-02   -0.38155E-02  4403   0.218E-01    0.497E-01
RMM:  53    -0.564177608627E+02   -0.34114E-02   -0.36570E-02  4266   0.216E-01    0.510E-01
RMM:  54    -0.564210068929E+02   -0.32460E-02   -0.34870E-02  4171   0.214E-01    0.521E-01
RMM:  55    -0.564240983066E+02   -0.30914E-02   -0.33259E-02  4195   0.212E-01    0.531E-01
RMM:  56    -0.564270529275E+02   -0.29546E-02   -0.31829E-02  4069   0.211E-01    0.540E-01
RMM:  57    -0.564298767389E+02   -0.28238E-02   -0.30546E-02  4334   0.209E-01    0.549E-01
RMM:  58    -0.564326460793E+02   -0.27693E-02   -0.29922E-02  3985   0.207E-01    0.556E-01
RMM:  59    -0.564352944635E+02   -0.26484E-02   -0.28628E-02  3954   0.206E-01    0.564E-01
RMM:  60    -0.564378340251E+02   -0.25396E-02   -0.27669E-02  3893   0.204E-01    0.567E-01
RMM:  61    -0.564402958604E+02   -0.24618E-02   -0.26690E-02  3819   0.203E-01    0.573E-01
RMM:  62    -0.564426289071E+02   -0.23330E-02   -0.25461E-02  5755   0.207E-01    0.585E-01
RMM:  63    -0.564451647577E+02   -0.25359E-02   -0.24455E-02  5989   0.208E-01    0.625E-01
RMM:  64    -0.564473804656E+02   -0.22157E-02   -0.24102E-02  5278   0.202E-01    0.634E-01
RMM:  65    -0.564495408607E+02   -0.21604E-02   -0.23832E-02  4239   0.199E-01    0.637E-01
RMM:  66    -0.564517195167E+02   -0.21787E-02   -0.23802E-02  3919   0.197E-01    0.640E-01
RMM:  67    -0.564535593342E+02   -0.18398E-02   -0.23080E-02  5951   0.202E-01    0.628E-01
RMM:  68    -0.564556428340E+02   -0.20835E-02   -0.22777E-02  5238   0.198E-01    0.632E-01
RMM:  69    -0.564577121782E+02   -0.20693E-02   -0.22761E-02  4518   0.195E-01    0.632E-01
RMM:  70    -0.564597990220E+02   -0.20868E-02   -0.22499E-02  4710   0.195E-01    0.640E-01
RMM:  71    -0.564618587257E+02   -0.20597E-02   -0.22285E-02  3823   0.192E-01    0.648E-01
RMM:  72    -0.564634808386E+02   -0.16221E-02   -0.24181E-02  6165   0.208E-01    0.585E-01
RMM:  73    -0.564655353214E+02   -0.20545E-02   -0.22180E-02  5941   0.197E-01    0.578E-01
RMM:  74    -0.564676062951E+02   -0.20710E-02   -0.22623E-02  5450   0.193E-01    0.578E-01
RMM:  75    -0.564696591551E+02   -0.20529E-02   -0.22809E-02  5178   0.191E-01    0.574E-01
RMM:  76    -0.564717425136E+02   -0.20834E-02   -0.22779E-02  4641   0.189E-01    0.575E-01
RMM:  77    -0.564737376672E+02   -0.19952E-02   -0.24539E-02  6289   0.200E-01    0.534E-01
RMM:  78    -0.564758866432E+02   -0.21490E-02   -0.23301E-02  5979   0.192E-01    0.528E-01
RMM:  79    -0.564780823240E+02   -0.21957E-02   -0.23788E-02  5127   0.188E-01    0.530E-01
RMM:  80    -0.564803357408E+02   -0.22534E-02   -0.24382E-02  4423   0.187E-01    0.534E-01
RMM:  81    -0.564826347334E+02   -0.22990E-02   -0.24836E-02  4406   0.185E-01    0.538E-01
RMM:  82    -0.564850042518E+02   -0.23695E-02   -0.26844E-02  6025   0.194E-01    0.515E-01
RMM:  83    -0.564874770818E+02   -0.24728E-02   -0.26637E-02  5655   0.188E-01    0.512E-01
RMM:  84    -0.564900883842E+02   -0.26113E-02   -0.27970E-02  4684   0.183E-01    0.514E-01
RMM:  85    -0.564928318966E+02   -0.27435E-02   -0.29257E-02  4427   0.183E-01    0.518E-01
RMM:  86    -0.564957586843E+02   -0.29268E-02   -0.31078E-02  4265   0.181E-01    0.523E-01
RMM:  87    -0.564989856018E+02   -0.32269E-02   -0.33478E-02  4856   0.186E-01    0.532E-01
RMM:  88    -0.565024351044E+02   -0.34495E-02   -0.36031E-02  3812   0.180E-01    0.539E-01
RMM:  89    -0.565062834576E+02   -0.38484E-02   -0.40167E-02  3975   0.179E-01    0.546E-01
RMM:  90    -0.565108115420E+02   -0.45281E-02   -0.46769E-02  3866   0.178E-01    0.557E-01
RMM:  91    -0.565166562484E+02   -0.58447E-02   -0.59816E-02  4079   0.178E-01    0.568E-01
RMM:  92    -0.565254870358E+02   -0.88308E-02   -0.93157E-02  5960   0.194E-01    0.556E-01
RMM:  93    -0.565352188379E+02   -0.97318E-02   -0.98944E-02  5626   0.182E-01    0.587E-01
RMM:  94    -0.565402906773E+02   -0.50718E-02   -0.51018E-02  4919   0.178E-01    0.603E-01
RMM:  95    -0.565437562850E+02   -0.34656E-02   -0.36716E-02  4699   0.176E-01    0.613E-01
RMM:  96    -0.565462525421E+02   -0.24963E-02   -0.26276E-02  4582   0.173E-01    0.621E-01
RMM:  97    -0.565482451618E+02   -0.19926E-02   -0.25900E-02  6378   0.194E-01    0.600E-01
RMM:  98    -0.565501957031E+02   -0.19505E-02   -0.22210E-02  5959   0.181E-01    0.597E-01
RMM:  99    -0.565522231851E+02   -0.20275E-02   -0.23603E-02  5721   0.174E-01    0.597E-01
RMM: 100    -0.565540573871E+02   -0.18342E-02   -0.20892E-02  5060   0.171E-01
   4 F= -.59707667E+02 E0= -.59697482E+02  d E =0.269190E+02
       N       E                     dE             d eps       ncg     rms          rms(c)
DAV:   1     0.107418139305E+02    0.67294E+02   -0.20866E+03  6272   0.123E+02    0.217E+01
RMM:   2     0.441255682702E+01   -0.63293E+01   -0.27196E+01  7544   0.989E+01    0.637E+01
RMM:   3     0.102239990326E+02    0.58114E+01   -0.93509E+01  8942   0.265E+01    0.311E+01
RMM:   4     0.307047067048E+02    0.20481E+02   -0.19383E+01  8415   0.123E+01    0.258E+01
RMM:   5     0.399971818899E+02    0.92925E+01   -0.12305E+01  9344   0.678E+00    0.223E+01
RMM:   6     0.540091974144E+02    0.14012E+02   -0.30197E+01  8597   0.101E+01    0.150E+01
RMM:   7     0.501798055725E+02   -0.38294E+01   -0.72283E+00  9593   0.484E+00    0.170E+01
RMM:   8     0.567401189256E+02    0.65603E+01   -0.23312E+01  8765   0.817E+00    0.162E+01
RMM:   9     0.520066429271E+02   -0.47335E+01   -0.52147E+01  9125   0.126E+01    0.334E+01
RMM:  10     0.484820700897E+02   -0.35246E+01   -0.31593E+01  9729   0.854E+00    0.467E+01
RMM:  11     0.442665992568E+02   -0.42155E+01   -0.28680E+01  9882   0.729E+00    0.598E+01
RMM:  12     0.429965569404E+02   -0.12700E+01   -0.14400E+01  9693   0.625E+00    0.694E+01
RMM:  13     0.427206060659E+02   -0.27595E+00   -0.55454E+00  8461   0.565E+00    0.771E+01
RMM:  14     0.366521485720E+02   -0.60685E+01   -0.15770E+01  8147   0.688E+00    0.102E+02
RMM:  15     0.357722385464E+02   -0.87991E+00   -0.66304E+00  9526   0.617E+00    0.115E+02
RMM:  16     0.356886458484E+02   -0.83593E-01   -0.20253E+00  9507   0.557E+00    0.123E+02
RMM:  17     0.329162179307E+02   -0.27724E+01   -0.60779E+00  9295   0.581E+00    0.141E+02
RMM:  18     0.333981713332E+02    0.48195E+00   -0.43512E-01  9826   0.523E+00    0.147E+02
RMM:  19     0.329744609050E+02   -0.42371E+00   -0.19371E+00  9509   0.510E+00    0.155E+02
RMM:  20     0.328928815912E+02   -0.81579E-01   -0.78976E-01  9164   0.490E+00    0.160E+02
RMM:  21     0.325997192480E+02   -0.29316E+00   -0.13172E+00  9167   0.481E+00    0.166E+02
RMM:  22     0.332995052298E+02    0.69979E+00    0.31113E-02  8759   0.460E+00    0.167E+02
RMM:  23     0.303580970283E+02   -0.29414E+01   -0.43399E+00  8899   0.509E+00    0.182E+02
RMM:  24     0.303932344759E+02    0.35137E-01   -0.45889E-01  9437   0.461E+00    0.187E+02
RMM:  25     0.307006404757E+02    0.30741E+00   -0.48346E-01  8715   0.447E+00    0.190E+02
RMM:  26     0.309871165927E+02    0.28648E+00   -0.36384E-01  8484   0.436E+00    0.192E+02
RMM:  27     0.323924964991E+02    0.14054E+01    0.27363E-01  8707   0.423E+00    0.191E+02
RMM:  28     0.331495973247E+02    0.75710E+00   -0.13253E-01  8676   0.415E+00    0.192E+02
RMM:  29     0.331215665234E+02   -0.28031E-01   -0.20355E-01  8092   0.407E+00    0.192E+02
RMM:  30     0.333147753468E+02    0.19321E+00   -0.58940E-01  9406   0.424E+00    0.187E+02
RMM:  31     0.356013673126E+02    0.22866E+01   -0.60041E-01  9742   0.422E+00    0.187E+02
RMM:  32     0.364761008362E+02    0.87473E+00   -0.82604E-01  9458   0.394E+00    0.187E+02
RMM:  33     0.360790363290E+02   -0.39706E+00   -0.10675E-01  8848   0.376E+00    0.187E+02
RMM:  34    -0.758937862656E+02   -0.11197E+03   -0.60207E+02  9796   0.180E+01    0.209E+02
RMM:  35     0.464593852349E+02    0.12235E+03   -0.16565E+02  9888   0.259E+01    0.201E+02
RMM:  36     0.403720008819E+02   -0.60874E+01   -0.36556E+01  9906   0.962E+00    0.201E+02
RMM:  37     0.404426619526E+02    0.70661E-01   -0.17112E+01  9689   0.587E+00    0.200E+02
RMM:  38     0.395437093744E+02   -0.89895E+00   -0.14453E+01  9398   0.492E+00    0.200E+02
RMM:  39     0.386532432988E+02   -0.89047E+00   -0.81391E+00  8993   0.441E+00    0.199E+02
RMM:  40     0.378971286381E+02   -0.75611E+00   -0.56010E+00  8694   0.409E+00    0.199E+02
RMM:  41     0.376101155027E+02   -0.28701E+00   -0.38813E+00  8401   0.387E+00    0.199E+02
RMM:  42     0.373094567795E+02   -0.30066E+00   -0.28647E+00  8293   0.369E+00    0.199E+02
RMM:  43     0.385379392550E+02    0.12285E+01   -0.27272E+00  9579   0.366E+00    0.196E+02
RMM:  44     0.383434662988E+02   -0.19447E+00   -0.16230E+00  8617   0.347E+00    0.195E+02
RMM:  45     0.410104682442E+02    0.26670E+01   -0.37826E+00  9897   0.367E+00    0.191E+02
RMM:  46     0.411645918442E+02    0.15412E+00   -0.29771E+00  9846   0.347E+00    0.193E+02
RMM:  47     0.578944332729E+02    0.16730E+02   -0.53518E+01  9956   0.101E+01    0.136E+02
RMM:  48     0.540725774082E+02   -0.38219E+01   -0.37896E+01  9948   0.578E+00    0.125E+02
RMM:  49     0.533238677956E+02   -0.74871E+00   -0.81326E+00  9885   0.447E+00    0.115E+02
RMM:  50     0.528579362022E+02   -0.46593E+00   -0.41281E+00  9746   0.358E+00    0.109E+02
RMM:  51     0.526576688057E+02   -0.20027E+00   -0.19543E+00  9437   0.312E+00    0.105E+02
RMM:  52     0.535598535602E+02    0.90218E+00   -0.24860E+01  9949   0.769E+00    0.676E+01
RMM:  53     0.534585546818E+02   -0.10130E+00   -0.32307E+00  9908   0.449E+00    0.680E+01
RMM:  54     0.533463080252E+02   -0.11225E+00   -0.71735E-01  9620   0.288E+00    0.650E+01
RMM:  55     0.533313236503E+02   -0.14984E-01   -0.22970E-01  8842   0.254E+00    0.632E+01
RMM:  56     0.533861294405E+02    0.54806E-01    0.12725E-01  9716   0.243E+00    0.628E+01
RMM:  57     0.508151586910E+02   -0.25710E+01   -0.10874E+01  9970   0.541E+00    0.628E+01
RMM:  58     0.495734990457E+02   -0.12417E+01   -0.44273E+00  9951   0.460E+00    0.618E+01
RMM:  59     0.491050076439E+02   -0.46849E+00   -0.28195E+00  9839   0.370E+00    0.585E+01
RMM:  60     0.487536287521E+02   -0.35138E+00   -0.21956E+00  9860   0.332E+00    0.566E+01
RMM:  61     0.481986935230E+02   -0.55494E+00   -0.20108E+00  9888   0.303E+00    0.554E+01
RMM:  62     0.481111823528E+02   -0.87511E-01   -0.57206E+00  9948   0.454E+00    0.601E+01
RMM:  63     0.511231957761E+02    0.30120E+01   -0.62647E+00  9959   0.465E+00    0.601E+01
RMM:  64     0.491361399763E+02   -0.19871E+01   -0.26859E+01  9959   0.826E+00    0.659E+01
RMM:  65     0.463474092048E+02   -0.27887E+01   -0.25118E+01  9951   0.624E+00    0.720E+01
RMM:  66     0.456338338907E+02   -0.71358E+00   -0.63599E+00  9950   0.494E+00    0.751E+01
RMM:  67     0.269623426399E+03    0.22399E+03   -0.32173E+02  9945   0.158E+02    0.307E+01
RMM:  68     0.493007915699E+02   -0.22032E+03    0.55173E+02  9960   0.712E+01    0.795E+02
RMM:  69     0.489626507538E+02   -0.33814E+00   -0.27906E+02  9958   0.383E+01    0.394E+02
RMM:  70     0.397291206212E+02   -0.92335E+01   -0.44373E+01  9956   0.204E+01    0.339E+02
RMM:  71     0.447530469678E+02    0.50239E+01   -0.46139E+01  9952   0.117E+01    0.228E+02
RMM:  72     0.382689540050E+02   -0.64841E+01   -0.37321E+01  9956   0.882E+00    0.195E+02
RMM:  73     0.500819385334E+02    0.11813E+02   -0.19536E+01  9962   0.824E+00    0.163E+02
RMM:  74     0.501984760647E+02    0.11654E+00   -0.11950E+01  9957   0.581E+00    0.145E+02
RMM:  75     0.499764702640E+02   -0.22201E+00   -0.33077E+00  9949   0.488E+00    0.136E+02
RMM:  76     0.507128875002E+02    0.73642E+00   -0.35559E+00  9944   0.414E+00    0.129E+02
RMM:  77     0.510144594334E+02    0.30157E+00   -0.31436E+00  9932   0.389E+00    0.121E+02
RMM:  78     0.500012558266E+02   -0.10132E+01   -0.94803E-01  9932   0.362E+00    0.120E+02
RMM:  79     0.480749852223E+02   -0.19263E+01   -0.33356E+00  9946   0.480E+00    0.125E+02
RMM:  80     0.479023385805E+02   -0.17265E+00   -0.64146E-01  9923   0.394E+00    0.126E+02
RMM:  81     0.483505657428E+02    0.44823E+00    0.59149E-03  9713   0.330E+00    0.128E+02
RMM:  82     0.503891307123E+02    0.20386E+01    0.71541E-02  9932   0.344E+00    0.122E+02
RMM:  83     0.509472307325E+02    0.55810E+00   -0.37996E+00  9915   0.353E+00    0.121E+02
RMM:  84     0.504311025229E+02   -0.51613E+00   -0.82090E-01  9850   0.309E+00    0.122E+02
RMM:  85     0.507694322768E+02    0.33833E+00   -0.11079E+00  9912   0.290E+00    0.121E+02
RMM:  86     0.507191126393E+02   -0.50320E-01   -0.37867E-01  9626   0.258E+00    0.119E+02
RMM:  87     0.507467537639E+02    0.27641E-01   -0.19341E+00  9934   0.307E+00    0.113E+02
RMM:  88     0.505506015025E+02   -0.19615E+00    0.12016E-01  9793   0.244E+00    0.112E+02
RMM:  89     0.504630803702E+02   -0.87521E-01   -0.48499E-02  9869   0.250E+00    0.110E+02
RMM:  90     0.499957600716E+02   -0.46732E+00   -0.39683E-01  9814   0.276E+00    0.110E+02
RMM:  91     0.485237791800E+02   -0.14720E+01   -0.20006E+00  9937   0.423E+00    0.109E+02
RMM:  92     0.449810366785E+02   -0.35427E+01   -0.13009E+01  9960   0.576E+00    0.997E+01
RMM:  93     0.513080233492E+02    0.63270E+01   -0.55894E+00  9950   0.434E+00    0.102E+02
RMM:  94     0.520811998578E+02    0.77318E+00   -0.11911E+01  9928   0.378E+00    0.100E+02
RMM:  95     0.514079459034E+02   -0.67325E+00   -0.97306E-01  9918   0.301E+00    0.976E+01
RMM:  96     0.519498844952E+02    0.54194E+00   -0.19644E+00  9885   0.291E+00    0.939E+01
RMM:  97     0.512155014343E+02   -0.73438E+00   -0.18310E+00  9942   0.299E+00    0.973E+01
RMM:  98     0.514120594181E+02    0.19656E+00   -0.25514E+00  9839   0.286E+00    0.976E+01
RMM:  99     0.512793376070E+02   -0.13272E+00   -0.28575E+00  9914   0.288E+00    0.985E+01
RMM: 100     0.508930818274E+02   -0.38626E+00   -0.17715E+00  9870   0.247E+00
   5 F= 0.47782328E+02 E0= 0.47781400E+02  d E =0.134409E+03
       N       E                     dE             d eps       ncg     rms          rms(c)
DAV:   1    -0.176064072054E+02   -0.68886E+02   -0.68776E+02  6824   0.817E+01    0.967E+01
RMM:   2     0.149978222297E+02    0.32604E+02    0.14799E+02  6371   0.992E+01    0.665E+01
RMM:   3     0.153537168825E+02    0.35589E+00   -0.19605E+02  7260   0.430E+01    0.274E+01
RMM:   4     0.521187953369E+02    0.36765E+02   -0.48855E+01  7543   0.184E+01    0.155E+01
RMM:   5     0.515572240365E+02   -0.56157E+00   -0.20032E+01  8219   0.994E+00    0.128E+01
RMM:   6     0.518421567935E+02    0.28493E+00   -0.80478E+00  8743   0.566E+00    0.977E+00
RMM:   7     0.510454043911E+02   -0.79675E+00   -0.79953E+00  8241   0.478E+00    0.545E+00
RMM:   8     0.506862090909E+02   -0.35920E+00   -0.43436E+00  8046   0.404E+00    0.566E+00
RMM:   9     0.506066275422E+02   -0.79582E-01   -0.36211E+00  9036   0.369E+00    0.481E+00
RMM:  10     0.504383528295E+02   -0.16827E+00   -0.23168E+00  8476   0.274E+00    0.401E+00
RMM:  11     0.502599419663E+02   -0.17841E+00   -0.16985E+00  9752   0.234E+00    0.515E+00
RMM:  12     0.502262806111E+02   -0.33661E-01   -0.12913E+00  8399   0.212E+00    0.434E+00
RMM:  13     0.501462430295E+02   -0.80038E-01   -0.11192E+00  9059   0.189E+00    0.408E+00
RMM:  14     0.500573703790E+02   -0.88873E-01   -0.93021E-01  7716   0.174E+00    0.552E+00
RMM:  15     0.499749738936E+02   -0.82396E-01   -0.80186E-01  9414   0.156E+00    0.568E+00
RMM:  16     0.498766601079E+02   -0.98314E-01   -0.79291E-01  8240   0.153E+00    0.652E+00
RMM:  17     0.498179509873E+02   -0.58709E-01   -0.61978E-01  9314   0.141E+00    0.665E+00
RMM:  18     0.497577324226E+02   -0.60219E-01   -0.58016E-01  8134   0.133E+00    0.696E+00
RMM:  19     0.497063167822E+02   -0.51416E-01   -0.50393E-01  7769   0.127E+00    0.703E+00
RMM:  20     0.496529013691E+02   -0.53415E-01   -0.45407E-01  8198   0.124E+00    0.762E+00
RMM:  21     0.496126382347E+02   -0.40263E-01   -0.40147E-01  7707   0.119E+00    0.773E+00
RMM:  22     0.495793576877E+02   -0.33281E-01   -0.37212E-01  7132   0.114E+00    0.772E+00
RMM:  23     0.495441497600E+02   -0.35208E-01   -0.33498E-01  7025   0.111E+00    0.789E+00
RMM:  24     0.495161118594E+02   -0.28038E-01   -0.31173E-01  7294   0.107E+00    0.788E+00
RMM:  25     0.495075283928E+02   -0.85835E-02   -0.28678E-01  8027   0.105E+00    0.736E+00
RMM:  26     0.495191228094E+02    0.11594E-01   -0.33525E-01  9178   0.106E+00    0.599E+00
RMM:  27     0.495010373735E+02   -0.18085E-01   -0.26152E-01  8158   0.960E-01    0.567E+00
RMM:  28     0.494773161569E+02   -0.23721E-01   -0.23675E-01  7405   0.909E-01    0.563E+00
RMM:  29     0.494582327098E+02   -0.19083E-01   -0.21798E-01  7645   0.874E-01    0.553E+00
RMM:  30     0.494405841284E+02   -0.17649E-01   -0.20029E-01  7053   0.843E-01    0.549E+00
RMM:  31     0.494231061060E+02   -0.17478E-01   -0.18702E-01  6900   0.817E-01    0.547E+00
RMM:  32     0.494013123518E+02   -0.21794E-01   -0.17842E-01  7537   0.802E-01    0.562E+00
RMM:  33     0.493930167007E+02   -0.82957E-02   -0.17409E-01  8031   0.786E-01    0.566E+00
RMM:  34     0.493931623720E+02    0.14567E-03   -0.17170E-01  8429   0.770E-01    0.542E+00
RMM:  35     0.493855827112E+02   -0.75797E-02   -0.15895E-01  7762   0.740E-01    0.523E+00
RMM:  36     0.493757369350E+02   -0.98458E-02   -0.14724E-01  7574   0.712E-01    0.514E+00
RMM:  37     0.494064893003E+02    0.30752E-01   -0.19904E-01  9609   0.796E-01    0.472E+00
RMM:  38     0.494029557740E+02   -0.35335E-02   -0.16524E-01  8668   0.730E-01    0.431E+00
RMM:  39     0.493900152880E+02   -0.12940E-01   -0.12833E-01  7843   0.672E-01    0.417E+00
RMM:  40     0.493784093069E+02   -0.11606E-01   -0.12421E-01  7735   0.641E-01    0.405E+00
RMM:  41     0.493690260078E+02   -0.93833E-02   -0.11328E-01  7393   0.620E-01    0.392E+00
RMM:  42     0.493597025531E+02   -0.93235E-02   -0.11696E-01  7315   0.605E-01    0.378E+00
RMM:  43     0.493504121734E+02   -0.92904E-02   -0.10765E-01  7143   0.589E-01    0.368E+00
RMM:  44     0.493411234662E+02   -0.92887E-02   -0.10352E-01  6900   0.573E-01    0.362E+00
RMM:  45     0.493321636790E+02   -0.89598E-02   -0.10007E-01  6971   0.561E-01    0.357E+00
RMM:  46     0.493283610535E+02   -0.38026E-02   -0.10505E-01  7863   0.567E-01    0.336E+00
RMM:  47     0.493319518204E+02    0.35908E-02   -0.12799E-01  9205   0.624E-01    0.273E+00
RMM:  48     0.493273069466E+02   -0.46449E-02   -0.11664E-01  8414   0.603E-01    0.231E+00
RMM:  49     0.493193196551E+02   -0.79873E-02   -0.10179E-01  7938   0.575E-01    0.210E+00
RMM:  50     0.493115767651E+02   -0.77429E-02   -0.98848E-02  8060   0.558E-01    0.191E+00
RMM:  51     0.493053323215E+02   -0.62444E-02   -0.98662E-02  8653   0.558E-01    0.157E+00
RMM:  52     0.493002178421E+02   -0.51145E-02   -0.11972E-01  9259   0.605E-01    0.946E-01
RMM:  53     0.492928934207E+02   -0.73244E-02   -0.88230E-02  8004   0.566E-01    0.776E-01
RMM:  54     0.492851946439E+02   -0.76988E-02   -0.84985E-02  7518   0.542E-01    0.694E-01
RMM:  55     0.492782527011E+02   -0.69419E-02   -0.76794E-02  6953   0.523E-01    0.652E-01
RMM:  56     0.492714878068E+02   -0.67649E-02   -0.79136E-02  7425   0.515E-01    0.574E-01
RMM:  57     0.492634527299E+02   -0.80351E-02   -0.10273E-01  9504   0.566E-01    0.574E-02
RMM:  58     0.492563805355E+02   -0.70722E-02   -0.78474E-02  7606   0.531E-01    0.102E-01
RMM:  59     0.492495603416E+02   -0.68202E-02   -0.76766E-02  7185   0.509E-01    0.151E-01
RMM:  60     0.492430099137E+02   -0.65504E-02   -0.72968E-02  7088   0.501E-01    0.255E-01
RMM:  61     0.492365935285E+02   -0.64164E-02   -0.71731E-02  6999   0.491E-01    0.336E-01
RMM:  62     0.492304620766E+02   -0.61315E-02   -0.68890E-02  6928   0.483E-01    0.399E-01
RMM:  63     0.492245189316E+02   -0.59431E-02   -0.67156E-02  6981   0.475E-01    0.462E-01
RMM:  64     0.492197197742E+02   -0.47992E-02   -0.60159E-02  7028   0.463E-01    0.444E-01
RMM:  65     0.492147028320E+02   -0.50169E-02   -0.59371E-02  6900   0.454E-01    0.463E-01
RMM:  66     0.492099060257E+02   -0.47968E-02   -0.56714E-02  6291   0.442E-01    0.488E-01
RMM:  67     0.492055110138E+02   -0.43950E-02   -0.54649E-02  6662   0.438E-01    0.476E-01
RMM:  68     0.492008857540E+02   -0.46253E-02   -0.54038E-02  6857   0.432E-01    0.514E-01
RMM:  69     0.491965651697E+02   -0.43206E-02   -0.52007E-02  6600   0.425E-01    0.535E-01
RMM:  70     0.491925032278E+02   -0.40619E-02   -0.50343E-02  6137   0.418E-01    0.548E-01
RMM:  71     0.491884966859E+02   -0.40065E-02   -0.49277E-02  6127   0.413E-01    0.560E-01
RMM:  72     0.491844706594E+02   -0.40260E-02   -0.48419E-02  6655   0.412E-01    0.555E-01
RMM:  73     0.491806744100E+02   -0.37962E-02   -0.46855E-02  6605   0.408E-01    0.547E-01
RMM:  74     0.491768618444E+02   -0.38126E-02   -0.46067E-02  6569   0.403E-01    0.572E-01
RMM:  75     0.491733436002E+02   -0.35182E-02   -0.44368E-02  6258   0.400E-01    0.587E-01
RMM:  76     0.491698838466E+02   -0.34598E-02   -0.43631E-02  6267   0.395E-01    0.604E-01
RMM:  77     0.491667804052E+02   -0.31034E-02   -0.41952E-02  6217   0.391E-01    0.605E-01
RMM:  78     0.491635471197E+02   -0.32333E-02   -0.41573E-02  6087   0.387E-01    0.615E-01
RMM:  79     0.491604324275E+02   -0.31147E-02   -0.40389E-02  5671   0.383E-01    0.626E-01
RMM:  80     0.491573550772E+02   -0.30774E-02   -0.39898E-02  5464   0.379E-01    0.637E-01
RMM:  81     0.491544210426E+02   -0.29340E-02   -0.38697E-02  5467   0.376E-01    0.648E-01
RMM:  82     0.491514523125E+02   -0.29687E-02   -0.38407E-02  6186   0.375E-01    0.669E-01
RMM:  83     0.491486590674E+02   -0.27932E-02   -0.37334E-02  5846   0.372E-01    0.679E-01
RMM:  84     0.491459677763E+02   -0.26913E-02   -0.36785E-02  5545   0.368E-01    0.685E-01
RMM:  85     0.491433187390E+02   -0.26490E-02   -0.35984E-02  5872   0.369E-01    0.694E-01
RMM:  86     0.491407195306E+02   -0.25992E-02   -0.35488E-02  5588   0.367E-01    0.701E-01
RMM:  87     0.491387487290E+02   -0.19708E-02   -0.34054E-02  6715   0.369E-01    0.744E-01
RMM:  88     0.491367492052E+02   -0.19995E-02   -0.34043E-02  6484   0.365E-01    0.708E-01
RMM:  89     0.491349778211E+02   -0.17714E-02   -0.33509E-02  6915   0.368E-01    0.643E-01
RMM:  90     0.491332251585E+02   -0.17527E-02   -0.33290E-02  7192   0.371E-01    0.570E-01
RMM:  91     0.491314051363E+02   -0.18200E-02   -0.33166E-02  7255   0.373E-01    0.490E-01
RMM:  92     0.491294692146E+02   -0.19359E-02   -0.32944E-02  7301   0.373E-01    0.415E-01
RMM:  93     0.491273360364E+02   -0.21332E-02   -0.30957E-02  6715   0.362E-01    0.402E-01
RMM:  94     0.491252718009E+02   -0.20642E-02   -0.31432E-02  6751   0.360E-01    0.375E-01
RMM:  95     0.491231970823E+02   -0.20747E-02   -0.30440E-02  6595   0.355E-01    0.372E-01
RMM:  96     0.491212266657E+02   -0.19704E-02   -0.30644E-02  6694   0.355E-01    0.348E-01
RMM:  97     0.491193109613E+02   -0.19157E-02   -0.30249E-02  6822   0.356E-01    0.325E-01
RMM:  98     0.491174175546E+02   -0.18934E-02   -0.30034E-02  6610   0.355E-01    0.301E-01
RMM:  99     0.491155088244E+02   -0.19087E-02   -0.29616E-02  6638   0.354E-01    0.289E-01
RMM: 100     0.491135940709E+02   -0.19148E-02   -0.29285E-02  6464   0.351E-01
   6 F= 0.46009356E+02 E0= 0.46010822E+02  d E =0.132636E+03
       N       E                     dE             d eps       ncg     rms          rms(c)
DAV:   1    -0.260386946164E+02   -0.75154E+02   -0.71855E+02  8104   0.419E+01    0.315E+01
RMM:   2     0.435386162379E+01    0.30393E+02   -0.16352E+01  6335   0.811E+01    0.197E+01
RMM:   3     0.212063830472E+02    0.16853E+02   -0.64807E+01  7647   0.240E+01    0.254E+01
RMM:   4     0.237161675588E+02    0.25098E+01   -0.19583E+01  8067   0.913E+00    0.285E+01
RMM:   5     0.215792628759E+02   -0.21369E+01   -0.10169E+01  8951   0.549E+00    0.352E+01
RMM:   6     0.265556250206E+02    0.49764E+01   -0.96223E+00  7733   0.651E+00    0.158E+01
RMM:   7     0.267946321447E+02    0.23901E+00   -0.38239E+00  9284   0.331E+00    0.141E+01
RMM:   8     0.268287197041E+02    0.34088E-01   -0.57598E+00  8112   0.381E+00    0.687E+00
RMM:   9     0.276750804057E+02    0.84636E+00   -0.29446E+00  8254   0.271E+00    0.328E+00
RMM:  10     0.276587774744E+02   -0.16303E-01   -0.25616E+00  9493   0.239E+00    0.312E+00
RMM:  11     0.274936634697E+02   -0.16511E+00   -0.10600E+00  8182   0.179E+00    0.397E+00
RMM:  12     0.272811812788E+02   -0.21248E+00   -0.11980E+00  9345   0.160E+00    0.635E+00
RMM:  13     0.274004792105E+02    0.11930E+00   -0.90694E-01  7818   0.154E+00    0.182E+00
RMM:  14     0.273342289314E+02   -0.66250E-01   -0.61806E-01  9339   0.118E+00    0.218E+00
RMM:  15     0.272874276881E+02   -0.46801E-01   -0.46155E-01  9246   0.997E-01    0.249E+00
RMM:  16     0.272382884861E+02   -0.49139E-01   -0.48597E-01  8566   0.918E-01    0.245E+00
RMM:  17     0.271755525918E+02   -0.62736E-01   -0.52334E-01  7938   0.916E-01    0.302E+00
RMM:  18     0.271694569061E+02   -0.60957E-02   -0.25177E-01  7939   0.877E-01    0.160E+00
RMM:  19     0.271471171921E+02   -0.22340E-01   -0.29636E-01  8793   0.799E-01    0.132E+00
RMM:  20     0.271206843032E+02   -0.26433E-01   -0.25254E-01  8024   0.734E-01    0.177E+00
RMM:  21     0.270944667529E+02   -0.26218E-01   -0.26679E-01  7462   0.700E-01    0.185E+00
RMM:  22     0.270713838974E+02   -0.23083E-01   -0.23973E-01  7752   0.687E-01    0.180E+00
RMM:  23     0.270537416140E+02   -0.17642E-01   -0.24058E-01  8430   0.722E-01    0.764E-01
RMM:  24     0.270344870218E+02   -0.19255E-01   -0.20135E-01  8620   0.663E-01    0.667E-01
RMM:  25     0.270163021636E+02   -0.18185E-01   -0.18789E-01  6602   0.635E-01    0.664E-01
RMM:  26     0.269989847803E+02   -0.17317E-01   -0.18211E-01  7043   0.625E-01    0.508E-01
RMM:  27     0.269824372463E+02   -0.16548E-01   -0.17378E-01  6833   0.613E-01    0.362E-01
RMM:  28     0.269670050492E+02   -0.15432E-01   -0.15963E-01  6978   0.602E-01    0.397E-01
RMM:  29     0.269513948097E+02   -0.15610E-01   -0.16329E-01  6659   0.592E-01    0.408E-01
RMM:  30     0.269365208728E+02   -0.14874E-01   -0.15543E-01  6502   0.581E-01    0.412E-01
RMM:  31     0.269214249192E+02   -0.15096E-01   -0.15897E-01  6941   0.580E-01    0.363E-01
RMM:  32     0.269068641671E+02   -0.14561E-01   -0.15331E-01  6324   0.570E-01    0.338E-01
RMM:  33     0.268923461683E+02   -0.14518E-01   -0.15395E-01  7230   0.571E-01    0.231E-01
RMM:  34     0.268789934868E+02   -0.13353E-01   -0.14109E-01  6368   0.562E-01    0.214E-01
RMM:  35     0.268665707876E+02   -0.12423E-01   -0.13179E-01  6653   0.555E-01    0.223E-01
RMM:  36     0.268547912864E+02   -0.11780E-01   -0.12626E-01  6657   0.553E-01    0.182E-01
RMM:  37     0.268435237040E+02   -0.11268E-01   -0.12108E-01  6637   0.551E-01    0.122E-01
RMM:  38     0.268328309012E+02   -0.10693E-01   -0.11491E-01  6578   0.544E-01    0.121E-01
RMM:  39     0.268225266686E+02   -0.10304E-01   -0.11109E-01  6395   0.538E-01    0.130E-01
RMM:  40     0.268125631410E+02   -0.99635E-02   -0.10794E-01  6442   0.536E-01    0.133E-01
RMM:  41     0.268029791204E+02   -0.95840E-02   -0.10427E-01  6074   0.529E-01    0.143E-01
RMM:  42     0.267936817108E+02   -0.92974E-02   -0.10161E-01  5870   0.525E-01    0.154E-01
RMM:  43     0.267847091405E+02   -0.89726E-02   -0.98460E-02  6058   0.524E-01    0.166E-01
RMM:  44     0.267759740732E+02   -0.87351E-02   -0.96145E-02  5759   0.520E-01    0.179E-01
RMM:  45     0.267675237568E+02   -0.84503E-02   -0.93394E-02  5450   0.515E-01    0.192E-01
RMM:  46     0.267593007260E+02   -0.82230E-02   -0.91218E-02  5262   0.512E-01    0.204E-01
RMM:  47     0.267513664068E+02   -0.79343E-02   -0.88554E-02  5118   0.508E-01    0.216E-01
RMM:  48     0.267437458590E+02   -0.76205E-02   -0.85355E-02  5032   0.505E-01    0.227E-01
RMM:  49     0.267364642757E+02   -0.72816E-02   -0.82089E-02  5280   0.504E-01    0.235E-01
RMM:  50     0.267294413006E+02   -0.70230E-02   -0.79535E-02  5389   0.502E-01    0.245E-01
RMM:  51     0.267226629199E+02   -0.67784E-02   -0.77147E-02  5176   0.500E-01    0.258E-01
RMM:  52     0.267160701125E+02   -0.65928E-02   -0.75650E-02  6006   0.501E-01    0.256E-01
RMM:  53     0.267097681484E+02   -0.63020E-02   -0.72641E-02  6330   0.501E-01    0.261E-01
RMM:  54     0.267036426154E+02   -0.61255E-02   -0.70878E-02  5741   0.498E-01    0.271E-01
RMM:  55     0.266977400766E+02   -0.59025E-02   -0.68697E-02  5742   0.498E-01    0.283E-01
RMM:  56     0.266919749728E+02   -0.57651E-02   -0.67410E-02  5677   0.497E-01    0.294E-01
RMM:  57     0.266863596862E+02   -0.56153E-02   -0.66007E-02  5540   0.494E-01    0.304E-01
RMM:  58     0.266808801548E+02   -0.54795E-02   -0.64683E-02  5216   0.491E-01    0.317E-01
RMM:  59     0.266755187379E+02   -0.53614E-02   -0.63579E-02  4882   0.488E-01    0.328E-01
RMM:  60     0.266702793429E+02   -0.52394E-02   -0.62429E-02  5054   0.488E-01    0.340E-01
RMM:  61     0.266651746481E+02   -0.51047E-02   -0.61159E-02  4717   0.485E-01    0.352E-01
RMM:  62     0.266601855150E+02   -0.49891E-02   -0.60042E-02  4959   0.483E-01    0.362E-01
RMM:  63     0.266553189904E+02   -0.48665E-02   -0.58937E-02  4775   0.482E-01    0.374E-01
RMM:  64     0.266505388559E+02   -0.47801E-02   -0.58180E-02  4840   0.482E-01    0.384E-01
RMM:  65     0.266458675383E+02   -0.46713E-02   -0.57156E-02  4856   0.482E-01    0.395E-01
RMM:  66     0.266412633219E+02   -0.46042E-02   -0.56569E-02  4856   0.481E-01    0.406E-01
RMM:  67     0.266367207928E+02   -0.45425E-02   -0.55712E-02  5601   0.480E-01    0.411E-01
RMM:  68     0.266322332399E+02   -0.44876E-02   -0.55312E-02  5548   0.479E-01    0.424E-01
RMM:  69     0.266278322131E+02   -0.44010E-02   -0.54799E-02  5108   0.478E-01    0.435E-01
RMM:  70     0.266234927404E+02   -0.43395E-02   -0.54368E-02  5111   0.479E-01    0.443E-01
RMM:  71     0.266192228101E+02   -0.42699E-02   -0.53645E-02  4904   0.478E-01    0.453E-01
RMM:  72     0.266150142967E+02   -0.42085E-02   -0.53930E-02  5766   0.478E-01    0.453E-01
RMM:  73     0.266109150663E+02   -0.40992E-02   -0.52357E-02  5508   0.477E-01    0.459E-01
RMM:  74     0.266068372606E+02   -0.40778E-02   -0.52140E-02  5299   0.476E-01    0.465E-01
RMM:  75     0.266028649866E+02   -0.39723E-02   -0.51012E-02  5330   0.479E-01    0.474E-01
RMM:  76     0.265989433021E+02   -0.39217E-02   -0.50562E-02  4905   0.475E-01    0.484E-01
RMM:  77     0.265951255854E+02   -0.38177E-02   -0.50065E-02  5423   0.476E-01    0.486E-01
RMM:  78     0.265913872179E+02   -0.37384E-02   -0.48921E-02  5380   0.476E-01    0.495E-01
RMM:  79     0.265876740322E+02   -0.37132E-02   -0.48678E-02  5129   0.473E-01    0.506E-01
RMM:  80     0.265840839296E+02   -0.35901E-02   -0.47594E-02  4841   0.474E-01    0.515E-01
RMM:  81     0.265805491719E+02   -0.35348E-02   -0.47121E-02  4728   0.473E-01    0.524E-01
RMM:  82     0.265771083580E+02   -0.34408E-02   -0.46586E-02  5578   0.475E-01    0.526E-01
RMM:  83     0.265737510400E+02   -0.33573E-02   -0.45332E-02  5105   0.473E-01    0.535E-01
RMM:  84     0.265704493012E+02   -0.33017E-02   -0.44952E-02  5437   0.473E-01    0.539E-01
RMM:  85     0.265672372810E+02   -0.32120E-02   -0.44202E-02  5262   0.474E-01    0.544E-01
RMM:  86     0.265640847249E+02   -0.31526E-02   -0.43714E-02  5301   0.475E-01    0.551E-01
RMM:  87     0.265609741658E+02   -0.31106E-02   -0.44262E-02  6180   0.480E-01    0.534E-01
RMM:  88     0.265579906011E+02   -0.29836E-02   -0.42520E-02  5654   0.474E-01    0.542E-01
RMM:  89     0.265549646218E+02   -0.30260E-02   -0.42751E-02  5363   0.474E-01    0.549E-01
RMM:  90     0.265520302514E+02   -0.29344E-02   -0.41832E-02  5258   0.475E-01    0.557E-01
RMM:  91     0.265491004481E+02   -0.29298E-02   -0.41917E-02  5521   0.476E-01    0.564E-01
RMM:  92     0.265461501846E+02   -0.29503E-02   -0.41175E-02  6500   0.488E-01    0.553E-01
RMM:  93     0.265433130816E+02   -0.28371E-02   -0.41199E-02  5631   0.475E-01    0.560E-01
RMM:  94     0.265405330040E+02   -0.27801E-02   -0.40678E-02  5312   0.474E-01    0.567E-01
RMM:  95     0.265377805687E+02   -0.27524E-02   -0.40445E-02  5765   0.478E-01    0.575E-01
RMM:  96     0.265350718301E+02   -0.27087E-02   -0.40189E-02  5674   0.479E-01    0.581E-01
RMM:  97     0.265324342424E+02   -0.26376E-02   -0.40192E-02  6344   0.490E-01    0.579E-01
RMM:  98     0.265298500190E+02   -0.25842E-02   -0.39462E-02  6139   0.488E-01    0.587E-01
RMM:  99     0.265272554091E+02   -0.25946E-02   -0.39522E-02  5531   0.482E-01    0.596E-01
RMM: 100     0.265246386036E+02   -0.26168E-02   -0.39921E-02  5374   0.482E-01
   7 F= 0.23417227E+02 E0= 0.23415556E+02  d E =0.110044E+03
       N       E                     dE             d eps       ncg     rms          rms(c)
DAV:   1    -0.881325888243E+02   -0.11466E+03   -0.11108E+03  7640   0.540E+00    0.279E+01
RMM:   2    -0.771484081615E+02    0.10984E+02   -0.25396E+02  6794   0.312E+01    0.211E+01
RMM:   3    -0.792824323901E+02   -0.21340E+01   -0.60497E+01  6892   0.147E+01    0.178E+01
RMM:   4    -0.796330803856E+02   -0.35065E+00   -0.19796E+01  7126   0.820E+00    0.144E+01
RMM:   5    -0.803425783429E+02   -0.70950E+00   -0.98801E+00  7466   0.523E+00    0.697E+00
RMM:   6    -0.806204321917E+02   -0.27785E+00   -0.61348E+00  8111   0.362E+00    0.343E+00
RMM:   7    -0.807467779300E+02   -0.12635E+00   -0.32660E+00  8289   0.244E+00    0.182E+00
RMM:   8    -0.809431149051E+02   -0.19634E+00   -0.21549E+00  7945   0.187E+00    0.954E-01
RMM:   9    -0.811059289950E+02   -0.16281E+00   -0.17039E+00  9082   0.144E+00    0.719E-01
RMM:  10    -0.812230669188E+02   -0.11714E+00   -0.11754E+00  8826   0.120E+00    0.527E-01
RMM:  11    -0.813170340494E+02   -0.93967E-01   -0.95880E-01  9068   0.107E+00    0.267E-01
RMM:  12    -0.814053924767E+02   -0.88358E-01   -0.89099E-01  8777   0.930E-01    0.165E-01
RMM:  13    -0.814809065432E+02   -0.75514E-01   -0.75871E-01  9580   0.822E-01    0.228E-01
RMM:  14    -0.815488444377E+02   -0.67938E-01   -0.67579E-01  8808   0.752E-01    0.330E-01
RMM:  15    -0.816057059763E+02   -0.56862E-01   -0.59306E-01  8692   0.707E-01    0.283E-01
RMM:  16    -0.816584420190E+02   -0.52736E-01   -0.53581E-01  8018   0.660E-01    0.336E-01
RMM:  17    -0.817059767961E+02   -0.47535E-01   -0.48235E-01  7674   0.624E-01    0.379E-01
RMM:  18    -0.817484194516E+02   -0.42443E-01   -0.44023E-01  7589   0.598E-01    0.412E-01
RMM:  19    -0.817873162545E+02   -0.38897E-01   -0.40426E-01  7349   0.572E-01    0.433E-01
RMM:  20    -0.818245985731E+02   -0.37282E-01   -0.38114E-01  6943   0.551E-01    0.468E-01
RMM:  21    -0.818601732284E+02   -0.35575E-01   -0.36592E-01  6717   0.533E-01    0.499E-01
RMM:  22    -0.818954224440E+02   -0.35249E-01   -0.36029E-01  6332   0.516E-01    0.532E-01
RMM:  23    -0.819299717095E+02   -0.34549E-01   -0.35279E-01  5853   0.502E-01    0.565E-01
RMM:  24    -0.819639224546E+02   -0.33951E-01   -0.34939E-01  5979   0.491E-01    0.592E-01
RMM:  25    -0.819976293023E+02   -0.33707E-01   -0.35121E-01  6026   0.482E-01    0.610E-01
RMM:  26    -0.820324777473E+02   -0.34848E-01   -0.35565E-01  5530   0.472E-01    0.638E-01
RMM:  27    -0.820671686986E+02   -0.34691E-01   -0.35888E-01  5663   0.464E-01    0.657E-01
RMM:  28    -0.821026121973E+02   -0.35443E-01   -0.36048E-01  4931   0.455E-01    0.682E-01
RMM:  29    -0.821383362717E+02   -0.35724E-01   -0.36320E-01  4521   0.447E-01    0.705E-01
RMM:  30    -0.821745803650E+02   -0.36244E-01   -0.36874E-01  4339   0.441E-01    0.725E-01
RMM:  31    -0.822114861992E+02   -0.36906E-01   -0.37608E-01  4376   0.434E-01    0.743E-01
RMM:  32    -0.822489867184E+02   -0.37501E-01   -0.38048E-01  3988   0.428E-01    0.760E-01
RMM:  33    -0.822866156762E+02   -0.37629E-01   -0.38228E-01  3970   0.422E-01    0.775E-01
RMM:  34    -0.823240478585E+02   -0.37432E-01   -0.38018E-01  3802   0.415E-01    0.789E-01
RMM:  35    -0.823598116206E+02   -0.35764E-01   -0.36380E-01  3712   0.408E-01    0.802E-01
RMM:  36    -0.823908962951E+02   -0.31085E-01   -0.31717E-01  3737   0.402E-01    0.818E-01
RMM:  37    -0.824168726374E+02   -0.25976E-01   -0.26694E-01  3622   0.396E-01    0.836E-01
RMM:  38    -0.824396899339E+02   -0.22817E-01   -0.23566E-01  3448   0.390E-01    0.854E-01
RMM:  39    -0.824601780399E+02   -0.20488E-01   -0.21250E-01  3447   0.385E-01    0.872E-01
RMM:  40    -0.824791837824E+02   -0.19006E-01   -0.19730E-01  3295   0.380E-01    0.890E-01
RMM:  41    -0.824969449688E+02   -0.17761E-01   -0.18473E-01  3215   0.376E-01    0.907E-01
RMM:  42    -0.825138786079E+02   -0.16934E-01   -0.17657E-01  3183   0.372E-01    0.923E-01
RMM:  43    -0.825295021295E+02   -0.15624E-01   -0.16487E-01  3333   0.369E-01    0.937E-01
RMM:  44    -0.825445976792E+02   -0.15096E-01   -0.15854E-01  3187   0.365E-01    0.952E-01
RMM:  45    -0.825590936495E+02   -0.14496E-01   -0.15206E-01  3092   0.363E-01    0.967E-01
RMM:  46    -0.825731358395E+02   -0.14042E-01   -0.14738E-01  3006   0.360E-01    0.981E-01
RMM:  47    -0.825863552062E+02   -0.13219E-01   -0.14249E-01  3871   0.358E-01    0.990E-01
RMM:  48    -0.825983883820E+02   -0.12033E-01   -0.13801E-01  4880   0.358E-01    0.992E-01
RMM:  49    -0.826083930428E+02   -0.10005E-01   -0.13296E-01  5531   0.365E-01    0.976E-01
RMM:  50    -0.826196462047E+02   -0.11253E-01   -0.12884E-01  5333   0.357E-01    0.976E-01
RMM:  51    -0.826315686045E+02   -0.11922E-01   -0.12540E-01  4517   0.350E-01    0.987E-01
RMM:  52    -0.826425953706E+02   -0.11027E-01   -0.12303E-01  4800   0.349E-01    0.991E-01
RMM:  53    -0.826542102406E+02   -0.11615E-01   -0.11976E-01  3953   0.344E-01    0.100E+00
RMM:  54    -0.826652667712E+02   -0.11057E-01   -0.11793E-01  3230   0.341E-01    0.101E+00
RMM:  55    -0.826758203140E+02   -0.10554E-01   -0.11513E-01  3446   0.339E-01    0.102E+00
RMM:  56    -0.826853991270E+02   -0.95788E-02   -0.11301E-01  5010   0.341E-01    0.102E+00
RMM:  57    -0.826856527457E+02   -0.25362E-03   -0.12959E-01  7771   0.411E-01    0.899E-01
RMM:  58    -0.826951545000E+02   -0.95018E-02   -0.95379E-02  5475   0.359E-01    0.918E-01
RMM:  59    -0.827045043621E+02   -0.93499E-02   -0.10395E-01  5287   0.345E-01    0.922E-01
RMM:  60    -0.827137178597E+02   -0.92135E-02   -0.97909E-02  5088   0.338E-01    0.929E-01
RMM:  61    -0.827230431208E+02   -0.93253E-02   -0.98402E-02  4700   0.332E-01    0.935E-01
RMM:  62    -0.827282585392E+02   -0.52154E-02   -0.10576E-01  5856   0.350E-01    0.884E-01
RMM:  63    -0.827371175799E+02   -0.88590E-02   -0.90712E-02  5240   0.335E-01    0.895E-01
RMM:  64    -0.827456242789E+02   -0.85067E-02   -0.93692E-02  5027   0.328E-01    0.896E-01
RMM:  65    -0.827537973664E+02   -0.81731E-02   -0.90101E-02  4737   0.325E-01    0.896E-01
RMM:  66    -0.827618128478E+02   -0.80155E-02   -0.89405E-02  4660   0.323E-01    0.896E-01
RMM:  67    -0.827641707069E+02   -0.23579E-02   -0.12307E-01  7430   0.378E-01    0.802E-01
RMM:  68    -0.827731431149E+02   -0.89724E-02   -0.61395E-02  5619   0.348E-01    0.882E-01
RMM:  69    -0.827816972566E+02   -0.85541E-02   -0.92822E-02  5392   0.330E-01    0.891E-01
RMM:  70    -0.827882995533E+02   -0.66023E-02   -0.86624E-02  5447   0.325E-01    0.878E-01
RMM:  71    -0.827960209549E+02   -0.77214E-02   -0.82177E-02  4927   0.319E-01    0.883E-01
RMM:  72    -0.827995077713E+02   -0.34868E-02   -0.15587E-01  8525   0.413E-01    0.695E-01
RMM:  73    -0.828069398262E+02   -0.74321E-02   -0.97260E-02  6623   0.362E-01    0.673E-01
RMM:  74    -0.828144785471E+02   -0.75387E-02   -0.84536E-02  5447   0.341E-01    0.664E-01
RMM:  75    -0.828213564937E+02   -0.68779E-02   -0.75330E-02  5382   0.324E-01    0.661E-01
RMM:  76    -0.828283536914E+02   -0.69972E-02   -0.76181E-02  5134   0.316E-01    0.662E-01
RMM:  77    -0.828362632349E+02   -0.79095E-02   -0.11752E-01  7651   0.380E-01    0.557E-01
RMM:  78    -0.828413251475E+02   -0.50619E-02   -0.60293E-02  5735   0.333E-01    0.527E-01
RMM:  79    -0.828475519652E+02   -0.62268E-02   -0.68381E-02  5676   0.321E-01    0.515E-01
RMM:  80    -0.828535780736E+02   -0.60261E-02   -0.64575E-02  5530   0.315E-01    0.527E-01
RMM:  81    -0.828598220047E+02   -0.62439E-02   -0.66903E-02  5455   0.317E-01    0.536E-01
RMM:  82    -0.828666376444E+02   -0.68156E-02   -0.69083E-02  6350   0.329E-01    0.586E-01
RMM:  83    -0.828731056214E+02   -0.64680E-02   -0.68913E-02  5633   0.319E-01    0.607E-01
RMM:  84    -0.828790781817E+02   -0.59726E-02   -0.65140E-02  5300   0.308E-01    0.604E-01
RMM:  85    -0.828851686426E+02   -0.60905E-02   -0.66595E-02  4971   0.302E-01    0.600E-01
RMM:  86    -0.828911703551E+02   -0.60017E-02   -0.66495E-02  4403   0.296E-01    0.602E-01
RMM:  87    -0.828976016451E+02   -0.64313E-02   -0.74692E-02  6578   0.330E-01    0.532E-01
RMM:  88    -0.829050206129E+02   -0.74190E-02   -0.89613E-02  6782   0.329E-01    0.500E-01
RMM:  89    -0.829115018669E+02   -0.64813E-02   -0.73248E-02  5907   0.320E-01    0.499E-01
RMM:  90    -0.829176181120E+02   -0.61162E-02   -0.66354E-02  5348   0.306E-01    0.514E-01
RMM:  91    -0.829234134481E+02   -0.57953E-02   -0.64089E-02  5081   0.299E-01    0.523E-01
RMM:  92    -0.829309669142E+02   -0.75535E-02   -0.79260E-02  7082   0.351E-01    0.513E-01
RMM:  93    -0.829362202773E+02   -0.52534E-02   -0.59021E-02  6273   0.323E-01    0.530E-01
RMM:  94    -0.829415214097E+02   -0.53011E-02   -0.61570E-02  5501   0.306E-01    0.529E-01
RMM:  95    -0.829464778444E+02   -0.49564E-02   -0.57720E-02  5357   0.298E-01    0.530E-01
RMM:  96    -0.829516259249E+02   -0.51481E-02   -0.60536E-02  5240   0.293E-01    0.536E-01
RMM:  97    -0.829565713844E+02   -0.49455E-02   -0.60869E-02  5519   0.301E-01    0.531E-01
RMM:  98    -0.829623394491E+02   -0.57681E-02   -0.63673E-02  5371   0.298E-01    0.522E-01
RMM:  99    -0.829688079589E+02   -0.64685E-02   -0.69464E-02  5716   0.303E-01    0.526E-01
RMM: 100    -0.829745307991E+02   -0.57228E-02   -0.63260E-02  5451   0.294E-01
   8 F= -.86081242E+02 E0= -.86078719E+02  d E =0.545376E+00
       N       E                     dE             d eps       ncg     rms          rms(c)
DAV:   1    -0.863664848060E+02   -0.33977E+01   -0.54057E+01  6448   0.938E+00    0.237E+00
RMM:   2    -0.874637548464E+02   -0.10973E+01   -0.92636E+00  6004   0.614E+00    0.353E+00
RMM:   3    -0.873042347799E+02    0.15952E+00   -0.16616E+00  6675   0.200E+00    0.101E+00
RMM:   4    -0.874023713992E+02   -0.98137E-01   -0.99207E-01  7271   0.880E-01    0.625E-01
RMM:   5    -0.874945522528E+02   -0.92181E-01   -0.80348E-01  7758   0.518E-01    0.448E-01
RMM:   6    -0.875621965573E+02   -0.67644E-01   -0.67992E-01  7468   0.379E-01    0.268E-01
RMM:   7    -0.876000542943E+02   -0.37858E-01   -0.37628E-01  8018   0.288E-01    0.113E-01
RMM:   8    -0.876326744311E+02   -0.32620E-01   -0.32324E-01  6501   0.222E-01    0.779E-02
RMM:   9    -0.876555183830E+02   -0.22844E-01   -0.22709E-01  6074   0.185E-01    0.391E-02
RMM:  10    -0.876775010550E+02   -0.21983E-01   -0.21725E-01  5767   0.162E-01    0.519E-02
RMM:  11    -0.876940552106E+02   -0.16554E-01   -0.16369E-01  5543   0.144E-01    0.414E-02
RMM:  12    -0.877092142880E+02   -0.15159E-01   -0.14934E-01  5346   0.131E-01    0.718E-02
RMM:  13    -0.877221604836E+02   -0.12946E-01   -0.12693E-01  5356   0.127E-01    0.470E-02
RMM:  14    -0.877347992074E+02   -0.12639E-01   -0.12329E-01  5173   0.115E-01    0.703E-02
RMM:  15    -0.877496026787E+02   -0.14803E-01   -0.14227E-01  4890   0.107E-01    0.973E-02
RMM:  16    -0.877628685323E+02   -0.13266E-01   -0.12882E-01  3966   0.103E-01    0.121E-01
RMM:  17    -0.877745916315E+02   -0.11723E-01   -0.11600E-01  3744   0.992E-02    0.135E-01
RMM:  18    -0.877909561393E+02   -0.16365E-01   -0.16456E-01  3640   0.939E-02    0.145E-01
RMM:  19    -0.878120121133E+02   -0.21056E-01   -0.21005E-01  3765   0.894E-02    0.154E-01
RMM:  20    -0.878269775390E+02   -0.14965E-01   -0.14693E-01  3463   0.859E-02    0.163E-01
RMM:  21    -0.878348069932E+02   -0.78295E-02   -0.77862E-02  4083   0.847E-02    0.166E-01
RMM:  22    -0.878427214470E+02   -0.79145E-02   -0.80584E-02  3316   0.805E-02    0.170E-01
RMM:  23    -0.878496252178E+02   -0.69038E-02   -0.70538E-02  3088   0.773E-02    0.173E-01
RMM:  24    -0.878555945391E+02   -0.59693E-02   -0.61180E-02  2804   0.745E-02    0.176E-01
RMM:  25    -0.878608144283E+02   -0.52199E-02   -0.53783E-02  2827   0.723E-02    0.179E-01
RMM:  26    -0.878652161710E+02   -0.44017E-02   -0.45596E-02  2774   0.699E-02    0.182E-01
RMM:  27    -0.878690887300E+02   -0.38726E-02   -0.40380E-02  3115   0.680E-02    0.183E-01
RMM:  28    -0.878723222504E+02   -0.32335E-02   -0.34235E-02  4536   0.689E-02    0.177E-01
RMM:  29    -0.878751446776E+02   -0.28224E-02   -0.30335E-02  5018   0.689E-02    0.167E-01
RMM:  30    -0.878775437452E+02   -0.23991E-02   -0.25635E-02  4301   0.639E-02    0.167E-01
RMM:  31    -0.878796413980E+02   -0.20977E-02   -0.22545E-02  3561   0.610E-02    0.169E-01
RMM:  32    -0.878814230137E+02   -0.17816E-02   -0.19477E-02  3350   0.597E-02    0.169E-01
RMM:  33    -0.878829969139E+02   -0.15739E-02   -0.17217E-02  3042   0.585E-02    0.172E-01
RMM:  34    -0.878843673071E+02   -0.13704E-02   -0.15057E-02  4245   0.592E-02    0.177E-01
RMM:  35    -0.878855515149E+02   -0.11842E-02   -0.13457E-02  2789   0.563E-02    0.178E-01
RMM:  36    -0.878865930765E+02   -0.10416E-02   -0.12009E-02  2401   0.556E-02    0.179E-01
RMM:  37    -0.878875209116E+02   -0.92784E-03   -0.10859E-02  2280   0.544E-02    0.180E-01
RMM:  38    -0.878883484798E+02   -0.82757E-03   -0.98374E-03  2317   0.537E-02    0.181E-01
RMM:  39    -0.878890936349E+02   -0.74516E-03   -0.90216E-03  2234   0.528E-02    0.182E-01
RMM:  40    -0.878897665164E+02   -0.67288E-03   -0.83252E-03  2562   0.525E-02    0.182E-01
RMM:  41    -0.878903797094E+02   -0.61319E-03   -0.77736E-03  4042   0.537E-02    0.181E-01
RMM:  42    -0.878909479213E+02   -0.56821E-03   -0.72513E-03  2479   0.508E-02    0.182E-01
RMM:  43    -0.878914758386E+02   -0.52792E-03   -0.68528E-03  2516   0.508E-02    0.183E-01
RMM:  44    -0.878919640849E+02   -0.48825E-03   -0.64898E-03  2317   0.501E-02    0.184E-01
RMM:  45    -0.878924245140E+02   -0.46043E-03   -0.62010E-03  2225   0.498E-02    0.185E-01
RMM:  46    -0.878928594465E+02   -0.43493E-03   -0.59659E-03  2197   0.494E-02    0.186E-01
RMM:  47    -0.878932748808E+02   -0.41543E-03   -0.57691E-03  3040   0.499E-02    0.188E-01
RMM:  48    -0.878936634512E+02   -0.38857E-03   -0.55503E-03  2492   0.486E-02    0.189E-01
RMM:  49    -0.878940428669E+02   -0.37942E-03   -0.54458E-03  3059   0.485E-02    0.190E-01
RMM:  50    -0.878944036985E+02   -0.36083E-03   -0.52694E-03  3023   0.481E-02    0.190E-01
RMM:  51    -0.878947590621E+02   -0.35536E-03   -0.52177E-03  2444   0.477E-02    0.191E-01
RMM:  52    -0.878951063729E+02   -0.34731E-03   -0.50995E-03  2460   0.476E-02    0.193E-01
RMM:  53    -0.878954462865E+02   -0.33991E-03   -0.51078E-03  2431   0.474E-02    0.194E-01
RMM:  54    -0.878957815114E+02   -0.33522E-03   -0.50459E-03  2112   0.470E-02    0.195E-01
RMM:  55    -0.878961180750E+02   -0.33656E-03   -0.50652E-03  2375   0.472E-02    0.195E-01
RMM:  56    -0.878964555718E+02   -0.33750E-03   -0.50342E-03  2597   0.473E-02    0.197E-01
RMM:  57    -0.878967981421E+02   -0.34257E-03   -0.52329E-03  5175   0.560E-02    0.201E-01
RMM:  58    -0.878971130784E+02   -0.31494E-03   -0.50449E-03  4000   0.504E-02    0.200E-01
RMM:  59    -0.878974466704E+02   -0.33359E-03   -0.51002E-03  3236   0.473E-02    0.200E-01
RMM:  60    -0.878977843497E+02   -0.33768E-03   -0.51215E-03  2389   0.468E-02    0.201E-01
RMM:  61    -0.878981235454E+02   -0.33920E-03   -0.51610E-03  3496   0.474E-02    0.202E-01
RMM:  62    -0.878985193169E+02   -0.39577E-03   -0.59677E-03  6064   0.757E-02    0.202E-01
RMM:  63    -0.878988522438E+02   -0.33293E-03   -0.51642E-03  5300   0.598E-02    0.201E-01
RMM:  64    -0.878992052729E+02   -0.35303E-03   -0.53532E-03  4255   0.501E-02    0.200E-01
RMM:  65    -0.878995394609E+02   -0.33419E-03   -0.52784E-03  3903   0.480E-02    0.199E-01
RMM:  66    -0.878999007307E+02   -0.36127E-03   -0.54422E-03  4213   0.483E-02    0.199E-01
RMM:  67    -0.879002601758E+02   -0.35945E-03   -0.59962E-03  6099   0.795E-02    0.199E-01
RMM:  68    -0.879005633050E+02   -0.30313E-03   -0.54408E-03  5325   0.609E-02    0.189E-01
RMM:  69    -0.879009031762E+02   -0.33987E-03   -0.58624E-03  5350   0.569E-02    0.179E-01
RMM:  70    -0.879012596551E+02   -0.35648E-03   -0.58310E-03  5254   0.570E-02    0.168E-01
RMM:  71    -0.879016469513E+02   -0.38730E-03   -0.57462E-03  4515   0.510E-02    0.166E-01
RMM:  72    -0.879024262755E+02   -0.77932E-03   -0.72894E-03  6390   0.879E-02    0.219E-01
RMM:  73    -0.879027855735E+02   -0.35930E-03   -0.59119E-03  5307   0.616E-02    0.217E-01
RMM:  74    -0.879031087225E+02   -0.32315E-03   -0.60471E-03  5056   0.532E-02    0.206E-01
RMM:  75    -0.879035103461E+02   -0.40162E-03   -0.60885E-03  4210   0.487E-02    0.202E-01
RMM:  76    -0.879039569719E+02   -0.44663E-03   -0.62843E-03  3795   0.467E-02    0.203E-01
RMM:  77    -0.879043719799E+02   -0.41501E-03   -0.78976E-03  7112   0.122E-01    0.136E-01
RMM:  78    -0.879048340430E+02   -0.46206E-03   -0.68521E-03  5872   0.758E-02    0.140E-01
RMM:  79    -0.879053788502E+02   -0.54481E-03   -0.69601E-03  5413   0.654E-02    0.154E-01
RMM:  80    -0.879058209416E+02   -0.44209E-03   -0.73619E-03  5842   0.728E-02    0.152E-01
RMM:  81    -0.879064132975E+02   -0.59236E-03   -0.78046E-03  5807   0.715E-02    0.162E-01
RMM:  82    -0.879069369905E+02   -0.52369E-03   -0.71506E-03  5370   0.630E-02    0.161E-01
RMM:  83    -0.879074491198E+02   -0.51213E-03   -0.70600E-03  4932   0.542E-02    0.152E-01
RMM:  84    -0.879079999491E+02   -0.55083E-03   -0.73740E-03  4233   0.493E-02    0.150E-01
RMM:  85    -0.879085590389E+02   -0.55909E-03   -0.74817E-03  3891   0.470E-02    0.150E-01
RMM:  86    -0.879091381993E+02   -0.57916E-03   -0.76521E-03  3533   0.458E-02    0.149E-01
RMM:  87    -0.879097148977E+02   -0.57670E-03   -0.77570E-03  3929   0.468E-02    0.145E-01
RMM:  88    -0.879103269818E+02   -0.61208E-03   -0.79950E-03  3820   0.468E-02    0.145E-01
RMM:  89    -0.879109511217E+02   -0.62414E-03   -0.81317E-03  2557   0.454E-02    0.144E-01
RMM:  90    -0.879115960991E+02   -0.64498E-03   -0.83103E-03  2565   0.456E-02    0.143E-01
RMM:  91    -0.879122747557E+02   -0.67866E-03   -0.84759E-03  3678   0.468E-02    0.147E-01
RMM:  92    -0.879129684853E+02   -0.69373E-03   -0.86662E-03  3801   0.466E-02    0.150E-01
RMM:  93    -0.879136609155E+02   -0.69243E-03   -0.88333E-03  2824   0.455E-02    0.150E-01
RMM:  94    -0.879143747883E+02   -0.71387E-03   -0.90349E-03  2251   0.451E-02    0.149E-01
RMM:  95    -0.879151062642E+02   -0.73148E-03   -0.92216E-03  2245   0.450E-02    0.149E-01
RMM:  96    -0.879158607173E+02   -0.75445E-03   -0.94482E-03  3691   0.467E-02    0.148E-01
RMM:  97    -0.879165506469E+02   -0.68993E-03   -0.96864E-03  4695   0.525E-02    0.130E-01
RMM:  98    -0.879173499329E+02   -0.79929E-03   -0.98152E-03  3968   0.480E-02    0.129E-01
RMM:  99    -0.879181625365E+02   -0.81260E-03   -0.10054E-02  3289   0.452E-02    0.127E-01
RMM: 100    -0.879189777979E+02   -0.81526E-03   -0.10224E-02  3016   0.448E-02
   9 F= -.91024321E+02 E0= -.91016499E+02  d E =-.439770E+01
       N       E                     dE             d eps       ncg     rms          rms(c)
DAV:   1    -0.884740900500E+02   -0.55593E+00   -0.10279E+01  6432   0.479E+00    0.725E-01
RMM:   2    -0.885875728719E+02   -0.11348E+00   -0.10502E+00  5904   0.186E+00    0.988E-01
RMM:   3    -0.885859832267E+02    0.15896E-02   -0.12183E-01  7156   0.698E-01    0.383E-01
RMM:   4    -0.885878677007E+02   -0.18845E-02   -0.46172E-02  7479   0.276E-01    0.195E-01
RMM:   5    -0.885897731230E+02   -0.19054E-02   -0.22156E-02  7384   0.130E-01    0.152E-01
RMM:   6    -0.885906281741E+02   -0.85505E-03   -0.11927E-02  6576   0.821E-02    0.711E-02
RMM:   7    -0.885913090863E+02   -0.68091E-03   -0.74218E-03  5872   0.554E-02    0.271E-02
RMM:   8    -0.885917831267E+02   -0.47404E-03   -0.48384E-03  5380   0.382E-02    0.199E-02
RMM:   9    -0.885921207608E+02   -0.33763E-03   -0.34118E-03  5206   0.284E-02    0.115E-02
RMM:  10    -0.885923644875E+02   -0.24373E-03   -0.23877E-03  5102   0.226E-02    0.612E-03
RMM:  11    -0.885925550527E+02   -0.19057E-03   -0.18039E-03  4797   0.186E-02    0.349E-03
RMM:  12    -0.885926936690E+02   -0.13862E-03   -0.13250E-03  4229   0.156E-02    0.187E-03
RMM:  13    -0.885927994288E+02   -0.10576E-03   -0.10364E-03  3394   0.138E-02    0.242E-03
[...]
DAV:   1    -0.930955391652E+02   -0.54790E-03   -0.26332E-02  5816   0.335E-01    0.497E-02
RMM:   2    -0.930955446732E+02   -0.55080E-05   -0.56934E-04  5550   0.676E-02    0.300E-02
RMM:   3    -0.930955544408E+02   -0.97676E-05   -0.18332E-04  5893   0.386E-02    0.230E-02
RMM:   4    -0.930955550655E+02   -0.62466E-06   -0.33648E-05  3782   0.165E-02
 110 F= -.96133527E+02 E0= -.96128135E+02  d E =-.536096E-03
       N       E                     dE             d eps       ncg     rms          rms(c)
DAV:   1    -0.930955704273E+02   -0.15987E-04   -0.70968E-04  7352   0.691E-02    0.157E-02
RMM:   2    -0.930955707189E+02   -0.29154E-06   -0.26350E-05  3403   0.154E-02
 111 F= -.96133539E+02 E0= -.96128152E+02  d E =-.548125E-03
       N       E                     dE             d eps       ncg     rms          rms(c)
DAV:   1    -0.930960524773E+02   -0.48205E-03   -0.12971E-02  5648   0.282E-01    0.310E-02
RMM:   2    -0.930961009701E+02   -0.48493E-04   -0.32648E-04  5737   0.626E-02    0.231E-02
RMM:   3    -0.930960937687E+02    0.72014E-05   -0.11171E-04  6228   0.362E-02    0.192E-02
RMM:   4    -0.930960907106E+02    0.30581E-05   -0.18518E-05  3269   0.160E-02
 112 F= -.96134046E+02 E0= -.96128675E+02  d E =-.507125E-03
       N       E                     dE             d eps       ncg     rms          rms(c)
DAV:   1    -0.930972265935E+02   -0.11328E-02   -0.11651E-01  5544   0.830E-01    0.823E-02
RMM:   2    -0.930974868424E+02   -0.26025E-03   -0.26863E-03  5896   0.181E-01    0.410E-02
RMM:   3    -0.930976346510E+02   -0.14781E-03   -0.95719E-04  7597   0.103E-01    0.547E-02
RMM:   4    -0.930975718895E+02    0.62762E-04   -0.11923E-04  6493   0.350E-02    0.297E-02
RMM:   5    -0.930975749231E+02   -0.30336E-05   -0.30850E-05  4222   0.167E-02
 113 F= -.96135493E+02 E0= -.96130125E+02  d E =-.195359E-02
       N       E                     dE             d eps       ncg     rms          rms(c)
DAV:   1    -0.930987975791E+02   -0.12257E-02   -0.46501E-01  5480   0.166E+00    0.171E-01
RMM:   2    -0.930998165266E+02   -0.10189E-02   -0.10719E-02  6033   0.364E-01    0.834E-02
RMM:   3    -0.931004264771E+02   -0.60995E-03   -0.38597E-03  7964   0.210E-01    0.106E-01
RMM:   4    -0.931001769040E+02    0.24957E-03   -0.46587E-04  7522   0.693E-02    0.565E-02
RMM:   5    -0.931001882799E+02   -0.11376E-04   -0.10302E-04  6290   0.290E-02    0.435E-02
RMM:   6    -0.931001908670E+02   -0.25871E-05   -0.51389E-05  4705   0.182E-02
 114 F= -.96138037E+02 E0= -.96132658E+02  d E =-.449769E-02
       N       E                     dE             d eps       ncg     rms          rms(c)
DAV:   1    -0.930983866431E+02    0.18016E-02   -0.18596E+00  5472   0.331E+00    0.340E-01
RMM:   2    -0.931025057111E+02   -0.41191E-02   -0.43315E-02  6063   0.734E-01    0.165E-01
RMM:   3    -0.931049071907E+02   -0.24015E-02   -0.15542E-02  8066   0.422E-01    0.203E-01
RMM:   4    -0.931039761144E+02    0.93108E-03   -0.18687E-03  7986   0.138E-01    0.110E-01
RMM:   5    -0.931040165580E+02   -0.40444E-04   -0.38227E-04  7801   0.562E-02    0.856E-02
RMM:   6    -0.931040207710E+02   -0.42130E-05   -0.16982E-04  6216   0.331E-02    0.332E-02
RMM:   7    -0.931040266261E+02   -0.58551E-05   -0.78148E-05  5330   0.218E-02
 115 F= -.96141744E+02 E0= -.96136353E+02  d E =-.820455E-02
       N       E                     dE             d eps       ncg     rms          rms(c)
DAV:   1    -0.930829222161E+02    0.21099E-01   -0.74429E+00  5456   0.665E+00    0.673E-01
RMM:   2    -0.930998657336E+02   -0.16944E-01   -0.17789E-01  6081   0.150E+00    0.327E-01
RMM:   3    -0.931095426881E+02   -0.96770E-02   -0.65625E-02  8131   0.852E-01    0.402E-01
RMM:   4    -0.931060142729E+02    0.35284E-02   -0.77610E-03  8125   0.281E-01    0.227E-01
RMM:   5    -0.931061772899E+02   -0.16302E-03   -0.15423E-03  8462   0.115E-01    0.181E-01
RMM:   6    -0.931061883646E+02   -0.11075E-04   -0.67846E-04  7404   0.665E-02    0.733E-02
RMM:   7    -0.931062040303E+02   -0.15666E-04   -0.29303E-04  6744   0.449E-02    0.642E-02
RMM:   8    -0.931062090641E+02   -0.50338E-05   -0.18773E-04  5954   0.294E-02    0.125E-02
RMM:   9    -0.931062165162E+02   -0.74521E-05   -0.99635E-05  5184   0.188E-02
 116 F= -.96143734E+02 E0= -.96138335E+02  d E =-.101953E-01
       N       E                     dE             d eps       ncg     rms          rms(c)
DAV:   1    -0.931046123214E+02    0.15967E-02   -0.58671E-01  5528   0.185E+00    0.175E-01
RMM:   2    -0.931058793031E+02   -0.12670E-02   -0.13298E-02  5977   0.406E-01    0.879E-02
RMM:   3    -0.931065786969E+02   -0.69939E-03   -0.47050E-03  7568   0.225E-01    0.112E-01
RMM:   4    -0.931063293488E+02    0.24935E-03   -0.52637E-04  7394   0.731E-02    0.645E-02
RMM:   5    -0.931063423550E+02   -0.13006E-04   -0.89287E-05  6456   0.291E-02    0.512E-02
RMM:   6    -0.931063417939E+02    0.56110E-06   -0.43393E-05  4988   0.188E-02
 117 F= -.96143908E+02 E0= -.96138509E+02  d E =-.103687E-01
       N       E                     dE             d eps       ncg     rms          rms(c)
DAV:   1    -0.931067404963E+02   -0.39814E-03   -0.10817E-01  5848   0.771E-01    0.707E-02
RMM:   2    -0.931069316544E+02   -0.19116E-03   -0.23035E-03  5746   0.165E-01    0.382E-02
RMM:   3    -0.931070356224E+02   -0.10397E-03   -0.82921E-04  7357   0.939E-02    0.455E-02
RMM:   4    -0.931070038397E+02    0.31783E-04   -0.10012E-04  5919   0.313E-02    0.317E-02
RMM:   5    -0.931070069702E+02   -0.31305E-05   -0.21997E-05  3676   0.155E-02
 118 F= -.96144567E+02 E0= -.96139183E+02  d E =-.659581E-03
       N       E                     dE             d eps       ncg     rms          rms(c)
DAV:   1    -0.931070617231E+02   -0.57883E-04   -0.30111E-02  6024   0.406E-01    0.519E-02
RMM:   2    -0.931071064262E+02   -0.44703E-04   -0.64683E-04  5688   0.879E-02    0.261E-02
RMM:   3    -0.931071491055E+02   -0.42679E-04   -0.24827E-04  6907   0.515E-02    0.286E-02
RMM:   4    -0.931071281087E+02    0.20997E-04   -0.43472E-05  4407   0.201E-02    0.149E-02
RMM:   5    -0.931071282589E+02   -0.15013E-06   -0.93736E-06  3257   0.111E-02
 119 F= -.96144686E+02 E0= -.96139293E+02  d E =-.778270E-03
       N       E                     dE             d eps       ncg     rms          rms(c)
DAV:   1    -0.931073701255E+02   -0.24202E-03   -0.11670E-02  6048   0.245E-01    0.212E-02
RMM:   2    -0.931073899425E+02   -0.19817E-04   -0.22098E-04  5530   0.522E-02    0.105E-02
RMM:   3    -0.931073992666E+02   -0.93241E-05   -0.90783E-05  4647   0.300E-02
 120 F= -.96144968E+02 E0= -.96139575E+02  d E =-.281770E-03
       N       E                     dE             d eps       ncg     rms          rms(c)
DAV:   1    -0.931079181821E+02   -0.52824E-03   -0.10536E-01  5832   0.734E-01    0.539E-02
RMM:   2    -0.931081031567E+02   -0.18497E-03   -0.19825E-03  5714   0.154E-01    0.281E-02
RMM:   3    -0.931081875402E+02   -0.84384E-04   -0.79777E-04  7242   0.885E-02    0.244E-02
RMM:   4    -0.931081906779E+02   -0.31377E-05   -0.86067E-05  5580   0.287E-02
 121 F= -.96145792E+02 E0= -.96140396E+02  d E =-.110592E-02
       N       E                     dE             d eps       ncg     rms          rms(c)
DAV:   1    -0.931085866512E+02   -0.39911E-03   -0.41931E-01  5720   0.147E+00    0.107E-01
RMM:   2    -0.931093306164E+02   -0.74397E-03   -0.79410E-03  5890   0.311E-01    0.567E-02
RMM:   3    -0.931096509734E+02   -0.32036E-03   -0.32230E-03  7512   0.177E-01    0.481E-02
RMM:   4    -0.931096803219E+02   -0.29349E-04   -0.33123E-04  6772   0.558E-02    0.521E-02
RMM:   5    -0.931096710227E+02    0.92992E-05   -0.66494E-05  5477   0.249E-02
 122 F= -.96147340E+02 E0= -.96141986E+02  d E =-.265383E-02
       N       E                     dE             d eps       ncg     rms          rms(c)
DAV:   1    -0.931079127615E+02    0.17676E-02   -0.16735E+00  5704   0.293E+00    0.245E-01
RMM:   2    -0.931108748049E+02   -0.29620E-02   -0.31771E-02  5937   0.624E-01    0.125E-01
RMM:   3    -0.931121291942E+02   -0.12544E-02   -0.13051E-02  7702   0.355E-01    0.817E-02
RMM:   4    -0.931122542172E+02   -0.12502E-03   -0.13454E-03  7557   0.111E-01    0.827E-02
RMM:   5    -0.931122617461E+02   -0.75289E-05   -0.21856E-04  7031   0.417E-02    0.758E-02
RMM:   6    -0.931122705815E+02   -0.88355E-05   -0.78854E-05  5347   0.248E-02
 123 F= -.96150083E+02 E0= -.96144796E+02  d E =-.539662E-02
       N       E                     dE             d eps       ncg     rms          rms(c)
DAV:   1    -0.930980523034E+02    0.14209E-01   -0.66862E+00  5720   0.587E+00    0.518E-01
RMM:   2    -0.931102276838E+02   -0.12175E-01   -0.12969E-01  5977   0.127E+00    0.252E-01
RMM:   3    -0.931153682593E+02   -0.51406E-02   -0.53590E-02  7818   0.718E-01    0.152E-01
RMM:   4    -0.931158836829E+02   -0.51542E-03   -0.55123E-03  7781   0.225E-01    0.156E-01
RMM:   5    -0.931159177619E+02   -0.34079E-04   -0.86658E-04  8029   0.833E-02    0.145E-01
RMM:   6    -0.931159353274E+02   -0.17565E-04   -0.27529E-04  6463   0.464E-02    0.591E-02
RMM:   7    -0.931159614972E+02   -0.26170E-04   -0.20804E-04  5655   0.424E-02    0.860E-02
RMM:   8    -0.931159644043E+02   -0.29071E-05   -0.80154E-05  5220   0.215E-02
 124 F= -.96154096E+02 E0= -.96148955E+02  d E =-.940940E-02
       N       E                     dE             d eps       ncg     rms          rms(c)
DAV:   1    -0.930402643406E+02    0.75697E-01   -0.26829E+01  5720   0.118E+01    0.103E+00
RMM:   2    -0.930927680111E+02   -0.52504E-01   -0.55915E-01  5999   0.266E+00    0.490E-01
RMM:   3    -0.931147111183E+02   -0.21943E-01   -0.23304E-01  7878   0.152E+00    0.338E-01
RMM:   4    -0.931167794945E+02   -0.20684E-02   -0.23623E-02  7909   0.465E-01    0.352E-01
RMM:   5    -0.931173231785E+02   -0.54368E-03   -0.38525E-03  8276   0.177E-01    0.193E-01
RMM:   6    -0.931175709392E+02   -0.24776E-03   -0.12014E-03  7696   0.945E-02    0.171E-01
RMM:   7    -0.931173292835E+02    0.24166E-03   -0.75200E-04  6484   0.892E-02    0.190E-01
RMM:   8    -0.931173161312E+02    0.13152E-04   -0.36444E-04  6126   0.528E-02    0.371E-02
RMM:   9    -0.931173280860E+02   -0.11955E-04   -0.19778E-04  5912   0.301E-02    0.362E-02
RMM:  10    -0.931173346407E+02   -0.65547E-05   -0.80216E-05  4977   0.184E-02
 125 F= -.96156232E+02 E0= -.96151449E+02  d E =-.115459E-01
       N       E                     dE             d eps       ncg     rms          rms(c)
DAV:   1    -0.931106910179E+02    0.66371E-02   -0.27650E+00  5720   0.378E+00    0.282E-01
RMM:   2    -0.931155678755E+02   -0.48769E-02   -0.51871E-02  5928   0.798E-01    0.140E-01
RMM:   3    -0.931175789951E+02   -0.20111E-02   -0.20603E-02  7712   0.451E-01    0.111E-01
RMM:   4    -0.931178008297E+02   -0.22183E-03   -0.20777E-03  7585   0.137E-01    0.120E-01
RMM:   5    -0.931177405300E+02    0.60300E-04   -0.31155E-04  7500   0.514E-02    0.106E-01
RMM:   6    -0.931177540501E+02   -0.13520E-04   -0.87989E-05  5791   0.274E-02    0.451E-02
RMM:   7    -0.931177838027E+02   -0.29753E-04   -0.10592E-04  5176   0.280E-02    0.921E-02
RMM:   8    -0.931177834769E+02    0.32580E-06   -0.25346E-05  4087   0.131E-02
 126 F= -.96156416E+02 E0= -.96151506E+02  d E =-.117297E-01
       N       E                     dE             d eps       ncg     rms          rms(c)
DAV:   1    -0.931178576655E+02   -0.73863E-04   -0.18685E-01  6032   0.962E-01    0.975E-02
RMM:   2    -0.931181401832E+02   -0.28252E-03   -0.34698E-03  5720   0.200E-01    0.507E-02
RMM:   3    -0.931182622472E+02   -0.12206E-03   -0.13379E-03  7183   0.113E-01    0.295E-02
RMM:   4    -0.931182847241E+02   -0.22477E-04   -0.14276E-04  6256   0.357E-02    0.332E-02
RMM:   5    -0.931182727451E+02    0.11979E-04   -0.25143E-05  3927   0.172E-02    0.242E-02
RMM:   6    -0.931182771065E+02   -0.43614E-05   -0.11861E-05  3290   0.105E-02
 127 F= -.96156983E+02 E0= -.96152098E+02  d E =-.566763E-03
       N       E                     dE             d eps       ncg     rms          rms(c)
DAV:   1    -0.931182646176E+02    0.81275E-05   -0.80015E-03  6600   0.201E-01    0.234E-02
RMM:   2    -0.931182767252E+02   -0.12108E-04   -0.15321E-04  5405   0.423E-02    0.113E-02
RMM:   3    -0.931182827581E+02   -0.60329E-05   -0.56554E-05  3920   0.245E-02
 128 F= -.96157004E+02 E0= -.96152118E+02  d E =-.587662E-03
       N       E                     dE             d eps       ncg     rms          rms(c)
DAV:   1    -0.931182833998E+02   -0.66746E-05   -0.52436E-04  6056   0.589E-02    0.109E-02
RMM:   2    -0.931182883384E+02   -0.49386E-05   -0.18448E-05  3334   0.161E-02
 129 F= -.96157005E+02 E0= -.96152110E+02  d E =-.589210E-03
       N       E                     dE             d eps       ncg     rms          rms(c)
DAV:   1    -0.931182834027E+02   -0.28995E-08   -0.25074E-04  6320   0.538E-02    0.365E-03
RMM:   2    -0.931182861928E+02   -0.27900E-05   -0.12828E-05  2995   0.127E-02
 130 F= -.96157006E+02 E0= -.96152116E+02  d E =-.589836E-03
       N       E                     dE             d eps       ncg     rms          rms(c)
DAV:   1    -0.931183399299E+02   -0.56527E-04   -0.28176E-03  5776   0.118E-01    0.110E-02
RMM:   2    -0.931183459032E+02   -0.59733E-05   -0.67655E-05  4521   0.250E-02
 131 F= -.96157079E+02 E0= -.96152201E+02  d E =-.737134E-04
       N       E                     dE             d eps       ncg     rms          rms(c)
DAV:   1    -0.931184636291E+02   -0.12370E-03   -0.25228E-02  5632   0.344E-01    0.333E-02
RMM:   2    -0.931185149804E+02   -0.51351E-04   -0.56587E-04  5702   0.713E-02    0.196E-02
RMM:   3    -0.931185353043E+02   -0.20324E-04   -0.13939E-04  6249   0.382E-02    0.219E-02
RMM:   4    -0.931185278304E+02    0.74739E-05   -0.22846E-05  3719   0.161E-02
 132 F= -.96157303E+02 E0= -.96152422E+02  d E =-.297769E-03
       N       E                     dE             d eps       ncg     rms          rms(c)
DAV:   1    -0.931185975807E+02   -0.62276E-04   -0.10042E-01  5456   0.685E-01    0.661E-02
RMM:   2    -0.931188021857E+02   -0.20461E-03   -0.22094E-03  5856   0.141E-01    0.386E-02
RMM:   3    -0.931188798083E+02   -0.77623E-04   -0.53563E-04  7302   0.750E-02    0.443E-02
RMM:   4    -0.931188481149E+02    0.31693E-04   -0.75740E-05  5679   0.275E-02    0.245E-02
RMM:   5    -0.931188517399E+02   -0.36250E-05   -0.20127E-05  3684   0.138E-02
 133 F= -.96157712E+02 E0= -.96152818E+02  d E =-.706278E-03
       N       E                     dE             d eps       ncg     rms          rms(c)
DAV:   1    -0.931183248455E+02    0.52327E-03   -0.40087E-01  5440   0.137E+00    0.132E-01
RMM:   2    -0.931191307105E+02   -0.80587E-03   -0.87912E-03  6034   0.281E-01    0.732E-02
RMM:   3    -0.931194015757E+02   -0.27087E-03   -0.20923E-03  7705   0.149E-01    0.712E-02
RMM:   4    -0.931193367162E+02    0.64860E-04   -0.30407E-04  7176   0.521E-02    0.456E-02
RMM:   5    -0.931193381074E+02   -0.13913E-05   -0.55253E-05  5516   0.226E-02
 134 F= -.96158369E+02 E0= -.96153463E+02  d E =-.136311E-02
       N       E                     dE             d eps       ncg     rms          rms(c)
DAV:   1    -0.931156026714E+02    0.37340E-02   -0.16027E+00  5440   0.273E+00    0.269E-01
RMM:   2    -0.931188324334E+02   -0.32298E-02   -0.35301E-02  6117   0.566E-01    0.148E-01
RMM:   3    -0.931199193435E+02   -0.10869E-02   -0.84290E-03  7891   0.298E-01    0.141E-01
RMM:   4    -0.931196825040E+02    0.23684E-03   -0.12277E-03  7860   0.104E-01    0.914E-02
RMM:   5    -0.931196819853E+02    0.51868E-06   -0.21040E-04  7211   0.422E-02    0.634E-02
RMM:   6    -0.931196969392E+02   -0.14954E-04   -0.13090E-04  5792   0.265E-02    0.193E-02
RMM:   7    -0.931197019550E+02   -0.50158E-05   -0.54423E-05  4836   0.170E-02
 135 F= -.96159079E+02 E0= -.96154178E+02  d E =-.207341E-02
       N       E                     dE             d eps       ncg     rms          rms(c)
DAV:   1    -0.931198719870E+02   -0.17505E-03   -0.16175E-01  5704   0.824E-01    0.766E-02
RMM:   2    -0.931201341681E+02   -0.26218E-03   -0.29995E-03  5791   0.162E-01    0.433E-02
RMM:   3    -0.931202052647E+02   -0.71097E-04   -0.66060E-04  7482   0.860E-02    0.331E-02
RMM:   4    -0.931202042317E+02    0.10330E-05   -0.99756E-05  6007   0.300E-02
 136 F= -.96159628E+02 E0= -.96154641E+02  d E =-.549062E-03
       N       E                     dE             d eps       ncg     rms          rms(c)
DAV:   1    -0.931195199120E+02    0.68535E-03   -0.58661E-01  5440   0.156E+00    0.147E-01
RMM:   2    -0.931204415405E+02   -0.92163E-03   -0.10753E-02  5918   0.309E-01    0.856E-02
RMM:   3    -0.931206695418E+02   -0.22800E-03   -0.23670E-03  7677   0.164E-01    0.605E-02
RMM:   4    -0.931207204622E+02   -0.50920E-04   -0.34040E-04  7092   0.561E-02    0.582E-02
RMM:   5    -0.931206795071E+02    0.40955E-04   -0.80099E-05  5551   0.250E-02    0.315E-02
RMM:   6    -0.931206929724E+02   -0.13465E-04   -0.41879E-05  4427   0.157E-02    0.829E-03
RMM:   7    -0.931206941749E+02   -0.12025E-05   -0.15983E-05  3690   0.974E-03
 137 F= -.96160208E+02 E0= -.96155131E+02  d E =-.112875E-02
       N       E                     dE             d eps       ncg     rms          rms(c)
DAV:   1    -0.931207492763E+02   -0.56304E-04   -0.11713E-03  6304   0.713E-02    0.655E-03
RMM:   2    -0.931207521149E+02   -0.28385E-05   -0.27796E-05  3376   0.153E-02
 138 F= -.96160269E+02 E0= -.96155180E+02  d E =-.614315E-04
       N       E                     dE             d eps       ncg     rms          rms(c)
DAV:   1    -0.931208986927E+02   -0.14942E-03   -0.10178E-02  5672   0.208E-01    0.197E-02
RMM:   2    -0.931209158993E+02   -0.17207E-04   -0.18852E-04  5559   0.409E-02    0.131E-02
RMM:   3    -0.931209211643E+02   -0.52651E-05   -0.48907E-05  4337   0.228E-02
 139 F= -.96160449E+02 E0= -.96155364E+02  d E =-.240983E-03
       N       E                     dE             d eps       ncg     rms          rms(c)
DAV:   1    -0.931211494971E+02   -0.23360E-03   -0.40519E-02  5520   0.415E-01    0.388E-02
RMM:   2    -0.931212128592E+02   -0.63362E-04   -0.74610E-04  5701   0.833E-02    0.232E-02
RMM:   3    -0.931212339029E+02   -0.21044E-04   -0.18142E-04  6625   0.460E-02    0.173E-02
RMM:   4    -0.931212339613E+02   -0.58390E-07   -0.33620E-05  3925   0.182E-02
 140 F= -.96160783E+02 E0= -.96155642E+02  d E =-.574812E-03
       N       E                     dE             d eps       ncg     rms          rms(c)
DAV:   1    -0.931214572674E+02   -0.22336E-03   -0.16225E-01  5472   0.824E-01    0.750E-02
RMM:   2    -0.931217126807E+02   -0.25541E-03   -0.29143E-03  5772   0.162E-01    0.437E-02
RMM:   3    -0.931217720766E+02   -0.59396E-04   -0.65357E-04  7396   0.865E-02    0.284E-02
RMM:   4    -0.931217890549E+02   -0.16978E-04   -0.92988E-05  5953   0.299E-02    0.285E-02
RMM:   5    -0.931217779913E+02    0.11064E-04   -0.27967E-05  4055   0.149E-02    0.156E-02
RMM:   6    -0.931217817291E+02   -0.37378E-05   -0.97830E-06  3297   0.917E-03
 141 F= -.96161373E+02 E0= -.96156187E+02  d E =-.116480E-02
       N       E                     dE             d eps       ncg     rms          rms(c)
DAV:   1    -0.931212498468E+02    0.52814E-03   -0.64823E-01  5440   0.165E+00    0.150E-01
RMM:   2    -0.931222938664E+02   -0.10440E-02   -0.11681E-02  5888   0.323E-01    0.836E-02
RMM:   3    -0.931225358233E+02   -0.24196E-03   -0.25958E-03  7675   0.172E-01    0.540E-02
RMM:   4    -0.931225813314E+02   -0.45508E-04   -0.35659E-04  7206   0.581E-02    0.545E-02
RMM:   5    -0.931225387123E+02    0.42619E-04   -0.79662E-05  5673   0.255E-02    0.300E-02
RMM:   6    -0.931225503736E+02   -0.11661E-04   -0.40347E-05  4404   0.156E-02    0.877E-03
RMM:   7    -0.931225515495E+02   -0.11759E-05   -0.15407E-05  3637   0.978E-03
 142 F= -.96162228E+02 E0= -.96156927E+02  d E =-.201984E-02
