       N       E                     dE             d eps       ncg     rms          rms(c)
DAV:   1     0.532811551559E+03    0.53281E+03   -0.14522E+04  2000   0.915E+02
DAV:   2     0.687290141992E+02   -0.46408E+03   -0.44619E+03  2240   0.268E+02
DAV:   3    -0.689601772376E+02   -0.13769E+03   -0.13261E+03  3792   0.152E+02
DAV:   4    -0.891531699739E+02   -0.20193E+02   -0.19178E+02  3544   0.704E+01
DAV:   5    -0.905750490549E+02   -0.14219E+01   -0.13782E+01  3376   0.198E+01    0.412E+01
RMM:   6    -0.882767935001E+02    0.22983E+01   -0.37020E+01  2437   0.375E+01    0.183E+01
RMM:   7    -0.971100143217E+02   -0.88332E+01   -0.36929E+01  2525   0.379E+01    0.191E+01
RMM:   8    -0.825469290246E+02    0.14563E+02   -0.16403E+01  2703   0.201E+01    0.115E+01
RMM:   9    -0.797899010130E+02    0.27570E+01   -0.32522E+00  2331   0.136E+01    0.532E+00
RMM:  10    -0.795956545280E+02    0.19425E+00   -0.30819E+00  2753   0.550E+00    0.278E+00
RMM:  11    -0.795479440221E+02    0.47711E-01   -0.48969E-01  2644   0.371E+00    0.110E+00
RMM:  12    -0.795491094790E+02   -0.11655E-02   -0.17931E-01  2795   0.166E+00    0.570E-01
RMM:  13    -0.795512289194E+02   -0.21194E-02   -0.43640E-02  2817   0.851E-01    0.273E-01
RMM:  14    -0.795515712400E+02   -0.34232E-03   -0.27059E-02  2817   0.651E-01    0.139E-01
RMM:  15    -0.795519967408E+02   -0.42550E-03   -0.68152E-03  2867   0.304E-01    0.979E-02
RMM:  16    -0.795517625153E+02    0.23423E-03   -0.26390E-03  2801   0.205E-01    0.367E-02
RMM:  17    -0.795518402548E+02   -0.77740E-04   -0.81720E-04  2550   0.781E-02    0.354E-02
RMM:  18    -0.795524115951E+02   -0.57134E-03   -0.34004E-04  2477   0.902E-02    0.199E-02
RMM:  19    -0.795524772773E+02   -0.65682E-04   -0.20432E-04  2086   0.463E-02    0.135E-02
RMM:  20    -0.795531628128E+02   -0.68554E-03   -0.14259E-04  2041   0.666E-02    0.251E-02
RMM:  21    -0.795532285382E+02   -0.65725E-04   -0.37858E-05  1617   0.328E-02    0.168E-02
RMM:  22    -0.795534572759E+02   -0.22874E-03   -0.19319E-05  1434   0.352E-02    0.781E-03
RMM:  23    -0.795535622586E+02   -0.10498E-03   -0.18299E-05  1384   0.198E-02    0.563E-03
RMM:  24    -0.795536725892E+02   -0.11033E-03   -0.14009E-05  1324   0.222E-02    0.482E-03
RMM:  25    -0.795537094551E+02   -0.36866E-04   -0.79617E-06  1235   0.201E-02    0.277E-03
RMM:  26    -0.795537174365E+02   -0.79814E-05   -0.35794E-06  1208   0.161E-02
   1 F= -.82732185E+02 E0= -.82734441E+02  d E =-.827322E+02
       N       E                     dE             d eps       ncg     rms          rms(c)
DAV:   1    -0.635422476065E+02    0.16011E+02   -0.16434E+03  2024   0.196E+02    0.299E+01
RMM:   2    -0.847126479784E+02   -0.21170E+02   -0.31826E+02  3171   0.979E+01    0.212E+01
RMM:   3    -0.838826270346E+02    0.83002E+00   -0.91872E+01  2830   0.419E+01    0.203E+01
RMM:   4    -0.806810834846E+02    0.32015E+01   -0.27072E+01  2824   0.218E+01    0.174E+01
RMM:   5    -0.805638258077E+02    0.11726E+00   -0.15499E+01  2579   0.176E+01    0.176E+01
RMM:   6    -0.742999301892E+02    0.62639E+01   -0.47135E+00  2721   0.991E+00    0.660E+00
RMM:   7    -0.741344490422E+02    0.16548E+00   -0.22602E+00  2531   0.729E+00    0.254E+00
RMM:   8    -0.746531393611E+02   -0.51869E+00   -0.11179E+00  2917   0.364E+00    0.733E+00
RMM:   9    -0.742811252412E+02    0.37201E+00   -0.13157E+00  2863   0.339E+00    0.273E+00
RMM:  10    -0.742371914625E+02    0.43934E-01   -0.46197E-01  3280   0.167E+00    0.152E+00
RMM:  11    -0.743391203676E+02   -0.10193E+00   -0.26482E-01  3257   0.121E+00    0.326E+00
RMM:  12    -0.744843407929E+02   -0.14522E+00   -0.25982E-01  3384   0.101E+00    0.485E+00
RMM:  13    -0.742446758734E+02    0.23966E+00   -0.62834E-01  3201   0.220E+00    0.214E+00
RMM:  14    -0.742086485460E+02    0.36027E-01   -0.49692E-02  2590   0.110E+00    0.448E-01
RMM:  15    -0.742109676178E+02   -0.23191E-02   -0.23130E-02  3178   0.390E-01    0.404E-01
RMM:  16    -0.742106304964E+02    0.33712E-03   -0.30403E-03  2949   0.206E-01    0.265E-01
RMM:  17    -0.742106380499E+02   -0.75535E-05   -0.14536E-03  2804   0.132E-01    0.106E-01
RMM:  18    -0.742114217384E+02   -0.78369E-03   -0.96043E-04  2683   0.972E-02    0.195E-01
RMM:  19    -0.742113246948E+02    0.97044E-04   -0.66133E-04  2538   0.820E-02    0.404E-02
RMM:  20    -0.742117145231E+02   -0.38983E-03   -0.37214E-04  2507   0.663E-02    0.102E-01
RMM:  21    -0.742120027499E+02   -0.28823E-03   -0.22364E-04  2217   0.535E-02    0.610E-02
RMM:  22    -0.742120410124E+02   -0.38262E-04   -0.11809E-04  2058   0.470E-02    0.446E-02
RMM:  23    -0.742120456090E+02   -0.45966E-05   -0.22312E-05  1507   0.277E-02
   2 F= -.77483259E+02 E0= -.77485412E+02  d E =0.524893E+01
       N       E                     dE             d eps       ncg     rms          rms(c)
DAV:   1    -0.774711678461E+02   -0.32591E+01   -0.22876E+02  2016   0.715E+01    0.572E+00
RMM:   2    -0.787004157667E+02   -0.12292E+01   -0.14013E+01  2571   0.233E+01    0.456E+00
RMM:   3    -0.791497549539E+02   -0.44934E+00   -0.20181E+00  2620   0.780E+00    0.548E+00
RMM:   4    -0.785134385134E+02    0.63632E+00   -0.82618E-01  2741   0.400E+00    0.285E+00
RMM:   5    -0.784583802957E+02    0.55058E-01   -0.18878E-01  2771   0.160E+00    0.177E+00
RMM:   6    -0.784281804328E+02    0.30200E-01   -0.10006E-01  2560   0.166E+00    0.131E+00
RMM:   7    -0.784145294188E+02    0.13651E-01   -0.10411E-01  2793   0.126E+00    0.478E-01
RMM:   8    -0.784136304231E+02    0.89900E-03   -0.18706E-02  2857   0.541E-01    0.335E-01
RMM:   9    -0.784130021766E+02    0.62825E-03   -0.49879E-03  2835   0.293E-01    0.204E-01
RMM:  10    -0.784127179133E+02    0.28426E-03   -0.24232E-03  2711   0.234E-01    0.933E-02
RMM:  11    -0.784127814025E+02   -0.63489E-04   -0.12931E-03  2924   0.131E-01    0.319E-02
RMM:  12    -0.784128292324E+02   -0.47830E-04   -0.39001E-04  2583   0.740E-02    0.203E-02
RMM:  13    -0.784128727835E+02   -0.43551E-04   -0.12725E-04  2077   0.433E-02    0.125E-02
RMM:  14    -0.784129333850E+02   -0.60602E-04   -0.28675E-05  1495   0.336E-02    0.783E-03
RMM:  15    -0.784130120977E+02   -0.78713E-04   -0.24064E-05  1365   0.332E-02    0.506E-03
RMM:  16    -0.784130601899E+02   -0.48092E-04   -0.16949E-05  1262   0.298E-02    0.472E-03
RMM:  17    -0.784131201444E+02   -0.59954E-04   -0.15954E-05  1304   0.276E-02    0.325E-03
RMM:  18    -0.784131517855E+02   -0.31641E-04   -0.15521E-05  1319   0.235E-02    0.241E-03
RMM:  19    -0.784131663525E+02   -0.14567E-04   -0.77995E-06  1218   0.228E-02    0.244E-03
RMM:  20    -0.784131768024E+02   -0.10450E-04   -0.58232E-06  1202   0.167E-02    0.134E-03
RMM:  21    -0.784131783851E+02   -0.15828E-05   -0.33870E-06  1191   0.158E-02
   3 F= -.81638697E+02 E0= -.81639574E+02  d E =0.109349E+01
       N       E                     dE             d eps       ncg     rms          rms(c)
DAV:   1    -0.802194792793E+02   -0.18063E+01   -0.87252E+01  2000   0.445E+01    0.335E+00
RMM:   2    -0.805547228085E+02   -0.33524E+00   -0.37878E+00  2649   0.117E+01    0.224E+00
RMM:   3    -0.806862812886E+02   -0.13156E+00   -0.87936E-01  2791   0.427E+00    0.352E+00
RMM:   4    -0.805278745004E+02    0.15841E+00   -0.12896E-01  2644   0.178E+00    0.106E+00
RMM:   5    -0.805080115200E+02    0.19863E-01   -0.57359E-02  2695   0.117E+00    0.762E-01
RMM:   6    -0.804997639249E+02    0.82476E-02   -0.33906E-02  2704   0.841E-01    0.337E-01
RMM:   7    -0.804978339158E+02    0.19300E-02   -0.15576E-02  2805   0.556E-01    0.130E-01
RMM:   8    -0.804977920247E+02    0.41891E-04   -0.23365E-03  2872   0.185E-01    0.876E-02
RMM:   9    -0.804977662357E+02    0.25789E-04   -0.69565E-04  2763   0.114E-01    0.327E-02
RMM:  10    -0.804977688785E+02   -0.26428E-05   -0.22182E-04  2362   0.836E-02    0.148E-02
RMM:  11    -0.804977950805E+02   -0.26202E-04   -0.10702E-04  2094   0.441E-02    0.101E-02
RMM:  12    -0.804978586340E+02   -0.63553E-04   -0.26968E-05  1378   0.394E-02    0.691E-03
RMM:  13    -0.804978907333E+02   -0.32099E-04   -0.13635E-05  1240   0.293E-02    0.493E-03
RMM:  14    -0.804979270561E+02   -0.36323E-04   -0.10359E-05  1204   0.250E-02    0.426E-03
RMM:  15    -0.804979993724E+02   -0.72316E-04   -0.21195E-05  1357   0.259E-02    0.332E-03
RMM:  16    -0.804980268917E+02   -0.27519E-04   -0.11705E-05  1273   0.265E-02    0.205E-03
RMM:  17    -0.804980425303E+02   -0.15639E-04   -0.75391E-06  1222   0.174E-02    0.203E-03
RMM:  18    -0.804980510235E+02   -0.84932E-05   -0.42242E-06  1200   0.175E-02
   4 F= -.83706345E+02 E0= -.83709179E+02  d E =-.974160E+00
       N       E                     dE             d eps       ncg     rms          rms(c)
DAV:   1    -0.816165967409E+02   -0.11186E+01   -0.16061E+02  2024   0.613E+01    0.735E+00
RMM:   2    -0.823529843626E+02   -0.73639E+00   -0.77065E+00  2767   0.151E+01    0.335E+00
RMM:   3    -0.830073834870E+02   -0.65440E+00   -0.20852E+00  2794   0.693E+00    0.539E+00
RMM:   4    -0.822528469295E+02    0.75454E+00   -0.48409E-01  2593   0.362E+00    0.180E+00
RMM:   5    -0.822334728916E+02    0.19374E-01   -0.21260E-01  2623   0.246E+00    0.974E-01
RMM:   6    -0.822190329990E+02    0.14440E-01   -0.76897E-02  2785   0.129E+00    0.281E-01
RMM:   7    -0.822167775462E+02    0.22555E-02   -0.10011E-02  2421   0.665E-01    0.151E-01
RMM:   8    -0.822168644740E+02   -0.86928E-04   -0.48258E-03  2829   0.270E-01    0.857E-02
RMM:   9    -0.822169183572E+02   -0.53883E-04   -0.12521E-03  2827   0.141E-01    0.439E-02
RMM:  10    -0.822169549546E+02   -0.36597E-04   -0.33721E-04  2474   0.732E-02    0.182E-02
RMM:  11    -0.822169936308E+02   -0.38676E-04   -0.10446E-04  1929   0.494E-02    0.104E-02
RMM:  12    -0.822170734569E+02   -0.79826E-04   -0.53277E-05  1740   0.342E-02    0.644E-03
RMM:  13    -0.822171753676E+02   -0.10191E-03   -0.30027E-05  1418   0.380E-02    0.646E-03
RMM:  14    -0.822172287012E+02   -0.53334E-04   -0.16028E-05  1290   0.289E-02    0.358E-03
RMM:  15    -0.822173018043E+02   -0.73103E-04   -0.15604E-05  1290   0.234E-02    0.248E-03
RMM:  16    -0.822173434797E+02   -0.41675E-04   -0.14085E-05  1309   0.245E-02    0.182E-03
RMM:  17    -0.822173680885E+02   -0.24609E-04   -0.75111E-06  1230   0.188E-02    0.140E-03
RMM:  18    -0.822173786364E+02   -0.10548E-04   -0.44841E-06  1213   0.162E-02    0.908E-04
RMM:  19    -0.822173869248E+02   -0.82884E-05   -0.30619E-06  1196   0.118E-02
   5 F= -.85409260E+02 E0= -.85413147E+02  d E =-.267708E+01
       N       E                     dE             d eps       ncg     rms          rms(c)
DAV:   1    -0.822241366220E+02   -0.67580E-02   -0.75375E+00  2288   0.133E+01    0.243E+00
RMM:   2    -0.822604483899E+02   -0.36312E-01   -0.34815E-01  2764   0.325E+00    0.146E+00
RMM:   3    -0.823234721966E+02   -0.63024E-01   -0.15486E-01  2758   0.196E+00    0.171E+00
RMM:   4    -0.822406998794E+02    0.82772E-01   -0.65418E-02  2495   0.139E+00    0.529E-01
RMM:   5    -0.822350489066E+02    0.56510E-02   -0.21703E-02  2437   0.931E-01    0.186E-01
RMM:   6    -0.822347098986E+02    0.33901E-03   -0.67573E-03  2770   0.321E-01    0.782E-02
RMM:   7    -0.822346860221E+02    0.23876E-04   -0.91809E-04  2686   0.130E-01    0.388E-02
RMM:   8    -0.822347125636E+02   -0.26541E-04   -0.28587E-04  2358   0.551E-02    0.139E-02
RMM:   9    -0.822347251395E+02   -0.12576E-04   -0.46173E-05  1643   0.496E-02    0.631E-03
RMM:  10    -0.822347337713E+02   -0.86318E-05   -0.11345E-05  1241   0.250E-02
   6 F= -.85423558E+02 E0= -.85427291E+02  d E =-.269137E+01
       N       E                     dE             d eps       ncg     rms          rms(c)
DAV:   1    -0.822481348133E+02   -0.13410E-01   -0.15226E+00  2272   0.593E+00    0.110E+00
RMM:   2    -0.822560463773E+02   -0.79116E-02   -0.72335E-02  2761   0.156E+00    0.746E-01
RMM:   3    -0.822643672519E+02   -0.83209E-02   -0.28167E-02  2729   0.856E-01    0.767E-01
RMM:   4    -0.822510863031E+02    0.13281E-01   -0.11864E-02  2428   0.641E-01    0.271E-01
RMM:   5    -0.822496150556E+02    0.14712E-02   -0.52436E-03  2393   0.488E-01    0.855E-02
RMM:   6    -0.822494873147E+02    0.12774E-03   -0.15730E-03  2716   0.160E-01    0.407E-02
RMM:   7    -0.822494914556E+02   -0.41409E-05   -0.22993E-04  2215   0.595E-02    0.200E-02
RMM:   8    -0.822494999553E+02   -0.84996E-05   -0.55034E-05  1655   0.495E-02
   7 F= -.85439666E+02 E0= -.85443482E+02  d E =-.270748E+01
       N       E                     dE             d eps       ncg     rms          rms(c)
DAV:   1    -0.790703255355E+02    0.31792E+01   -0.42273E+02  2000   0.976E+01    0.103E+01
RMM:   2    -0.819150601085E+02   -0.28447E+01   -0.33407E+01  2760   0.291E+01    0.530E+00
RMM:   3    -0.821042896200E+02   -0.18923E+00   -0.50688E+00  2781   0.101E+01    0.450E+00
RMM:   4    -0.814889758874E+02    0.61531E+00   -0.15855E+00  2678   0.602E+00    0.344E+00
RMM:   5    -0.813861302645E+02    0.10285E+00   -0.36718E-01  2747   0.269E+00    0.249E+00
RMM:   6    -0.813291752185E+02    0.56955E-01   -0.38537E-01  2731   0.293E+00    0.871E-01
RMM:   7    -0.813202702377E+02    0.89050E-02   -0.88891E-02  2536   0.152E+00    0.539E-01
RMM:   8    -0.813161896838E+02    0.40806E-02   -0.32186E-02  2836   0.722E-01    0.227E-01
RMM:   9    -0.813181853870E+02   -0.19957E-02   -0.19201E-02  2951   0.413E-01    0.104E-01
RMM:  10    -0.813185557425E+02   -0.37036E-03   -0.36250E-03  2761   0.220E-01    0.640E-02
RMM:  11    -0.813187877430E+02   -0.23200E-03   -0.13186E-03  2873   0.126E-01    0.319E-02
RMM:  12    -0.813189195365E+02   -0.13179E-03   -0.54519E-04  2643   0.845E-02    0.194E-02
RMM:  13    -0.813192273566E+02   -0.30782E-03   -0.30827E-04  2306   0.747E-02    0.184E-02
RMM:  14    -0.813193174961E+02   -0.90140E-04   -0.10231E-04  1940   0.434E-02    0.107E-02
RMM:  15    -0.813194126663E+02   -0.95170E-04   -0.79105E-05  1809   0.387E-02    0.870E-03
RMM:  16    -0.813194830128E+02   -0.70346E-04   -0.32077E-05  1555   0.314E-02    0.471E-03
RMM:  17    -0.813195310376E+02   -0.48025E-04   -0.31207E-05  1529   0.275E-02    0.335E-03
RMM:  18    -0.813195354136E+02   -0.43760E-05   -0.62523E-06  1322   0.232E-02
   8 F= -.84569878E+02 E0= -.84573926E+02  d E =0.869789E+00
       N       E                     dE             d eps       ncg     rms          rms(c)
DAV:   1    -0.819472977740E+02   -0.62777E+00   -0.47245E+01  2000   0.317E+01    0.197E+00
RMM:   2    -0.822029787133E+02   -0.25568E+00   -0.27437E+00  2816   0.916E+00    0.106E+00
RMM:   3    -0.822545633620E+02   -0.51585E-01   -0.53290E-01  2938   0.291E+00    0.113E+00
RMM:   4    -0.822192266844E+02    0.35337E-01   -0.11633E-01  2847   0.143E+00    0.837E-01
RMM:   5    -0.822064093203E+02    0.12817E-01   -0.48202E-02  2862   0.887E-01    0.402E-01
RMM:   6    -0.822050233669E+02    0.13860E-02   -0.27199E-02  2868   0.512E-01    0.228E-01
RMM:   7    -0.822043018654E+02    0.72150E-03   -0.44152E-03  2790   0.303E-01    0.146E-01
RMM:   8    -0.822041361207E+02    0.16574E-03   -0.26206E-03  2700   0.237E-01    0.630E-02
RMM:   9    -0.822041634879E+02   -0.27367E-04   -0.49110E-04  2579   0.102E-01    0.276E-02
RMM:  10    -0.822042479818E+02   -0.84494E-04   -0.21243E-04  2283   0.609E-02    0.125E-02
RMM:  11    -0.822043151858E+02   -0.67204E-04   -0.79156E-05  1825   0.449E-02    0.128E-02
RMM:  12    -0.822044436609E+02   -0.12848E-03   -0.77855E-05  1817   0.428E-02    0.118E-02
RMM:  13    -0.822045194482E+02   -0.75787E-04   -0.59709E-05  1627   0.377E-02    0.706E-03
RMM:  14    -0.822046375046E+02   -0.11806E-03   -0.29124E-05  1455   0.295E-02    0.636E-03
RMM:  15    -0.822047095077E+02   -0.72003E-04   -0.15633E-05  1352   0.245E-02    0.357E-03
RMM:  16    -0.822047591447E+02   -0.49637E-04   -0.14467E-05  1339   0.200E-02    0.298E-03
RMM:  17    -0.822047741103E+02   -0.14966E-04   -0.66350E-06  1230   0.220E-02    0.253E-03
RMM:  18    -0.822047828767E+02   -0.87664E-05   -0.29599E-06  1187   0.103E-02
   9 F= -.85413404E+02 E0= -.85417329E+02  d E =0.262625E-01
       N       E                     dE             d eps       ncg     rms          rms(c)
DAV:   1    -0.825339128073E+02   -0.32914E+00   -0.17800E+01  2000   0.191E+01    0.131E+00
RMM:   2    -0.826134690705E+02   -0.79556E-01   -0.90139E-01  2820   0.540E+00    0.671E-01
RMM:   3    -0.826317197313E+02   -0.18251E-01   -0.18479E-01  2968   0.163E+00    0.639E-01
RMM:   4    -0.826222403830E+02    0.94793E-02   -0.34078E-02  2822   0.806E-01    0.413E-01
RMM:   5    -0.826195177363E+02    0.27226E-02   -0.11041E-02  2700   0.540E-01    0.228E-01
RMM:   6    -0.826186293599E+02    0.88838E-03   -0.52644E-03  2699   0.341E-01    0.778E-02
RMM:   7    -0.826185969172E+02    0.32443E-04   -0.12237E-03  2722   0.170E-01    0.471E-02
RMM:   8    -0.826186223507E+02   -0.25433E-04   -0.43169E-04  2623   0.981E-02    0.255E-02
RMM:   9    -0.826186593891E+02   -0.37038E-04   -0.13921E-04  2150   0.552E-02    0.137E-02
RMM:  10    -0.826186848235E+02   -0.25434E-04   -0.41365E-05  1630   0.421E-02    0.808E-03
RMM:  11    -0.826187102046E+02   -0.25381E-04   -0.22278E-05  1394   0.294E-02    0.397E-03
RMM:  12    -0.826187369509E+02   -0.26746E-04   -0.11224E-05  1252   0.287E-02    0.314E-03
RMM:  13    -0.826187836763E+02   -0.46725E-04   -0.13306E-05  1292   0.218E-02    0.406E-03
RMM:  14    -0.826188124313E+02   -0.28755E-04   -0.74252E-06  1240   0.221E-02    0.203E-03
RMM:  15    -0.826188316545E+02   -0.19223E-04   -0.72584E-06  1234   0.155E-02    0.238E-03
RMM:  16    -0.826188435041E+02   -0.11850E-04   -0.44916E-06  1216   0.171E-02    0.191E-03
RMM:  17    -0.826188524342E+02   -0.89301E-05   -0.34461E-06  1200   0.109E-02
  10 F= -.85820938E+02 E0= -.85824960E+02  d E =-.381271E+00
       N       E                     dE             d eps       ncg     rms          rms(c)
DAV:   1    -0.827197741260E+02   -0.10093E+00   -0.23108E+01  2000   0.218E+01    0.186E+00
RMM:   2    -0.828381156284E+02   -0.11834E+00   -0.12051E+00  2794   0.631E+00    0.132E+00
RMM:   3    -0.828251068164E+02    0.13009E-01   -0.24499E-01  2765   0.234E+00    0.940E-01
RMM:   4    -0.827958350931E+02    0.29272E-01   -0.61508E-02  2657   0.128E+00    0.566E-01
RMM:   5    -0.827909863129E+02    0.48488E-02   -0.13404E-02  2575   0.670E-01    0.288E-01
RMM:   6    -0.827908853770E+02    0.10094E-03   -0.62602E-03  2811   0.382E-01    0.620E-02
RMM:   7    -0.827909217797E+02   -0.36403E-04   -0.16702E-03  2768   0.170E-01    0.347E-02
RMM:   8    -0.827909205273E+02    0.12523E-05   -0.39773E-04  2492   0.957E-02    0.205E-02
RMM:   9    -0.827909321932E+02   -0.11666E-04   -0.16149E-04  2224   0.577E-02    0.125E-02
RMM:  10    -0.827909437420E+02   -0.11549E-04   -0.44743E-05  1594   0.413E-02    0.851E-03
RMM:  11    -0.827909512661E+02   -0.75241E-05   -0.16642E-05  1273   0.350E-02
  11 F= -.85987222E+02 E0= -.85991403E+02  d E =-.547556E+00
       N       E                     dE             d eps       ncg     rms          rms(c)
DAV:   1    -0.827933991562E+02   -0.24554E-02   -0.10388E+00  2032   0.470E+00    0.427E-01
RMM:   2    -0.827983923707E+02   -0.49932E-02   -0.58585E-02  2779   0.136E+00    0.313E-01
RMM:   3    -0.827970107790E+02    0.13816E-02   -0.10280E-02  2727   0.504E-01    0.205E-01
RMM:   4    -0.827955255607E+02    0.14852E-02   -0.26245E-03  2629   0.285E-01    0.127E-01
RMM:   5    -0.827953276153E+02    0.19795E-03   -0.59297E-04  2446   0.142E-01    0.661E-02
RMM:   6    -0.827953357767E+02   -0.81613E-05   -0.34940E-04  2477   0.932E-02    0.126E-02
RMM:   7    -0.827953402211E+02   -0.44444E-05   -0.88698E-05  1888   0.484E-02
  12 F= -.85992836E+02 E0= -.85997018E+02  d E =-.553170E+00
       N       E                     dE             d eps       ncg     rms          rms(c)
DAV:   1    -0.827966317750E+02   -0.12960E-02   -0.78861E-02  2384   0.129E+00    0.117E-01
RMM:   2    -0.827970009152E+02   -0.36914E-03   -0.43315E-03  2748   0.386E-01    0.857E-02
RMM:   3    -0.827969072267E+02    0.93688E-04   -0.85184E-04  2634   0.145E-01    0.552E-02
RMM:   4    -0.827967962264E+02    0.11100E-03   -0.19496E-04  2108   0.819E-02    0.330E-02
RMM:   5    -0.827967827833E+02    0.13443E-04   -0.42716E-05  1606   0.507E-02    0.193E-02
RMM:   6    -0.827967869883E+02   -0.42050E-05   -0.27499E-05  1400   0.354E-02
  13 F= -.85993945E+02 E0= -.85998127E+02  d E =-.554279E+00
       N       E                     dE             d eps       ncg     rms          rms(c)
DAV:   1    -0.826093782246E+02    0.18740E+00   -0.72559E+01  2000   0.416E+01    0.362E+00
RMM:   2    -0.830532564177E+02   -0.44388E+00   -0.43819E+00  2776   0.120E+01    0.306E+00
RMM:   3    -0.829466421295E+02    0.10661E+00   -0.46295E-01  2702   0.377E+00    0.205E+00
RMM:   4    -0.828876562336E+02    0.58986E-01   -0.15269E-01  2599   0.220E+00    0.138E+00
RMM:   5    -0.828646534014E+02    0.23003E-01   -0.59584E-02  2404   0.164E+00    0.531E-01
RMM:   6    -0.828611581044E+02    0.34953E-02   -0.31725E-02  2639   0.906E-01    0.157E-01
RMM:   7    -0.828614632439E+02   -0.30514E-03   -0.78490E-03  2810   0.385E-01    0.110E-01
RMM:   8    -0.828614382194E+02    0.25024E-04   -0.20025E-03  2830   0.163E-01    0.597E-02
RMM:   9    -0.828614705641E+02   -0.32345E-04   -0.74483E-04  2652   0.124E-01    0.228E-02
RMM:  10    -0.828615144385E+02   -0.43874E-04   -0.15867E-04  2079   0.610E-02    0.130E-02
RMM:  11    -0.828615706023E+02   -0.56164E-04   -0.63235E-05  1767   0.460E-02    0.821E-03
RMM:  12    -0.828616183629E+02   -0.47761E-04   -0.17845E-05  1327   0.311E-02    0.735E-03
RMM:  13    -0.828616592847E+02   -0.40922E-04   -0.10952E-05  1260   0.266E-02    0.480E-03
RMM:  14    -0.828617039234E+02   -0.44639E-04   -0.11450E-05  1270   0.225E-02    0.404E-03
RMM:  15    -0.828617455639E+02   -0.41640E-04   -0.14457E-05  1320   0.239E-02    0.555E-03
RMM:  16    -0.828617677017E+02   -0.22138E-04   -0.11716E-05  1313   0.196E-02    0.236E-03
RMM:  17    -0.828617757231E+02   -0.80213E-05   -0.68688E-06  1237   0.165E-02
  14 F= -.86066505E+02 E0= -.86070399E+02  d E =-.725603E-01
       N       E                     dE             d eps       ncg     rms          rms(c)
DAV:   1    -0.829350280160E+02   -0.73260E-01   -0.11924E+01  2000   0.164E+01    0.146E+00
RMM:   2    -0.829862949559E+02   -0.51267E-01   -0.57137E-01  2798   0.439E+00    0.927E-01
RMM:   3    -0.829954224479E+02   -0.91275E-02   -0.10148E-01  2754   0.160E+00    0.791E-01
RMM:   4    -0.829721299729E+02    0.23292E-01   -0.27197E-02  2557   0.912E-01    0.396E-01
RMM:   5    -0.829694000363E+02    0.27299E-02   -0.67430E-03  2404   0.568E-01    0.184E-01
RMM:   6    -0.829695651494E+02   -0.16511E-03   -0.36990E-03  2811   0.229E-01    0.701E-02
RMM:   7    -0.829696792356E+02   -0.11409E-03   -0.76677E-04  2656   0.120E-01    0.280E-02
RMM:   8    -0.829697345937E+02   -0.55358E-04   -0.19649E-04  2154   0.588E-02    0.145E-02
RMM:   9    -0.829697705970E+02   -0.36003E-04   -0.55681E-05  1723   0.446E-02    0.543E-03
RMM:  10    -0.829698057771E+02   -0.35180E-04   -0.21275E-05  1412   0.259E-02    0.353E-03
RMM:  11    -0.829698285360E+02   -0.22759E-04   -0.81403E-06  1229   0.244E-02    0.218E-03
RMM:  12    -0.829698568415E+02   -0.28305E-04   -0.81717E-06  1250   0.173E-02    0.142E-03
RMM:  13    -0.829698706046E+02   -0.13763E-04   -0.47843E-06  1216   0.167E-02    0.137E-03
RMM:  14    -0.829698827214E+02   -0.12117E-04   -0.45994E-06  1202   0.122E-02    0.884E-04
RMM:  15    -0.829698932066E+02   -0.10485E-04   -0.46919E-06  1220   0.130E-02    0.120E-03
RMM:  16    -0.829698965345E+02   -0.33279E-05   -0.33207E-06  1147   0.108E-02
  15 F= -.86171523E+02 E0= -.86175687E+02  d E =-.177578E+00
       N       E                     dE             d eps       ncg     rms          rms(c)
DAV:   1    -0.828735103913E+02    0.96383E-01   -0.42567E+01  2000   0.302E+01    0.208E+00
RMM:   2    -0.830190599262E+02   -0.14555E+00   -0.17309E+00  2539   0.866E+00    0.199E+00
RMM:   3    -0.830203121153E+02   -0.12522E-02   -0.29587E-01  2714   0.271E+00    0.155E+00
RMM:   4    -0.830219137484E+02   -0.16016E-02   -0.67164E-02  2748   0.137E+00    0.120E+00
RMM:   5    -0.830137488533E+02    0.81649E-02   -0.31407E-02  2485   0.112E+00    0.498E-01
RMM:   6    -0.830094772859E+02    0.42716E-02   -0.10164E-02  2385   0.726E-01    0.190E-01
RMM:   7    -0.830098258768E+02   -0.34859E-03   -0.50971E-03  2805   0.243E-01    0.864E-02
RMM:   8    -0.830097088395E+02    0.11704E-03   -0.87036E-04  2591   0.159E-01    0.555E-02
RMM:   9    -0.830097001589E+02    0.86806E-05   -0.37627E-04  2469   0.665E-02    0.254E-02
RMM:  10    -0.830097093184E+02   -0.91596E-05   -0.95894E-05  1997   0.632E-02
  16 F= -.86214691E+02 E0= -.86218973E+02  d E =-.431687E-01
       N       E                     dE             d eps       ncg     rms          rms(c)
DAV:   1    -0.830424892647E+02   -0.32789E-01   -0.74927E+00  2000   0.127E+01    0.887E-01
RMM:   2    -0.830603660360E+02   -0.17877E-01   -0.25665E-01  2538   0.334E+00    0.735E-01
RMM:   3    -0.830664182746E+02   -0.60522E-02   -0.60321E-02  2729   0.116E+00    0.541E-01
RMM:   4    -0.830655878378E+02    0.83044E-03   -0.14288E-02  2688   0.639E-01    0.359E-01
RMM:   5    -0.830627616434E+02    0.28262E-02   -0.34184E-03  2454   0.386E-01    0.136E-01
RMM:   6    -0.830627559914E+02    0.56520E-05   -0.14189E-03  2559   0.214E-01    0.521E-02
RMM:   7    -0.830627783899E+02   -0.22399E-04   -0.58395E-04  2585   0.102E-01    0.273E-02
RMM:   8    -0.830627660817E+02    0.12308E-04   -0.97310E-05  1959   0.570E-02    0.174E-02
RMM:   9    -0.830627635943E+02    0.24874E-05   -0.56650E-05  1736   0.369E-02
  17 F= -.86266293E+02 E0= -.86270534E+02  d E =-.947698E-01
       N       E                     dE             d eps       ncg     rms          rms(c)
DAV:   1    -0.831352144123E+02   -0.72448E-01   -0.17345E+01  2000   0.204E+01    0.113E+00
RMM:   2    -0.831992625373E+02   -0.64048E-01   -0.70252E-01  2524   0.618E+00    0.964E-01
RMM:   3    -0.832075309238E+02   -0.82684E-02   -0.17577E-01  2734   0.211E+00    0.684E-01
RMM:   4    -0.832057744387E+02    0.17565E-02   -0.27783E-02  2731   0.864E-01    0.559E-01
RMM:   5    -0.832041458206E+02    0.16286E-02   -0.61045E-03  2499   0.489E-01    0.307E-01
RMM:   6    -0.832041162415E+02    0.29579E-04   -0.40080E-03  2479   0.402E-01    0.107E-01
RMM:   7    -0.832041970591E+02   -0.80818E-04   -0.13609E-03  2734   0.146E-01    0.706E-02
RMM:   8    -0.832041234184E+02    0.73641E-04   -0.27561E-04  2350   0.942E-02    0.448E-02
RMM:   9    -0.832041036219E+02    0.19796E-04   -0.20490E-04  2390   0.571E-02    0.171E-02
RMM:  10    -0.832041062634E+02   -0.26414E-05   -0.40804E-05  1602   0.432E-02
  18 F= -.86410256E+02 E0= -.86414423E+02  d E =-.143963E+00
       N       E                     dE             d eps       ncg     rms          rms(c)
DAV:   1    -0.831833042136E+02    0.20799E-01   -0.17777E+01  2000   0.205E+01    0.113E+00
RMM:   2    -0.832440505929E+02   -0.60746E-01   -0.68187E-01  2492   0.617E+00    0.918E-01
RMM:   3    -0.832567817488E+02   -0.12731E-01   -0.19405E-01  2733   0.219E+00    0.643E-01
RMM:   4    -0.832554332919E+02    0.13485E-02   -0.31988E-02  2748   0.912E-01    0.538E-01
RMM:   5    -0.832533700839E+02    0.20632E-02   -0.60444E-03  2492   0.477E-01    0.305E-01
RMM:   6    -0.832534661966E+02   -0.96113E-04   -0.40492E-03  2492   0.400E-01    0.106E-01
RMM:   7    -0.832535465806E+02   -0.80384E-04   -0.13511E-03  2717   0.153E-01    0.709E-02
RMM:   8    -0.832534730011E+02    0.73579E-04   -0.27845E-04  2380   0.955E-02    0.443E-02
RMM:   9    -0.832534572094E+02    0.15792E-04   -0.19679E-04  2339   0.561E-02    0.168E-02
RMM:  10    -0.832534614219E+02   -0.42125E-05   -0.40717E-05  1605   0.444E-02
  19 F= -.86462474E+02 E0= -.86466561E+02  d E =-.196182E+00
       N       E                     dE             d eps       ncg     rms          rms(c)
DAV:   1    -0.832595358865E+02   -0.60787E-02   -0.74734E+00  2000   0.129E+01    0.670E-01
RMM:   2    -0.832852307526E+02   -0.25695E-01   -0.29603E-01  2776   0.333E+00    0.380E-01
RMM:   3    -0.832862688248E+02   -0.10381E-02   -0.29453E-02  2715   0.848E-01    0.239E-01
RMM:   4    -0.832876300452E+02   -0.13612E-02   -0.86164E-03  2765   0.443E-01    0.238E-01
RMM:   5    -0.832857028415E+02    0.19272E-02   -0.24460E-03  2539   0.268E-01    0.776E-02
RMM:   6    -0.832857690779E+02   -0.66236E-04   -0.93605E-04  2684   0.148E-01    0.433E-02
RMM:   7    -0.832857409046E+02    0.28173E-04   -0.19919E-04  2176   0.774E-02    0.203E-02
RMM:   8    -0.832857501323E+02   -0.92277E-05   -0.59176E-05  1704   0.459E-02
  20 F= -.86494148E+02 E0= -.86498205E+02  d E =-.316741E-01
       N       E                     dE             d eps       ncg     rms          rms(c)
DAV:   1    -0.832857565515E+02   -0.15647E-04   -0.47637E-05  2600   0.401E-02    0.393E-03
RMM:   2    -0.832857616692E+02   -0.51177E-05   -0.27540E-06  1208   0.119E-02
  21 F= -.86494161E+02 E0= -.86498211E+02  d E =-.316866E-01
       N       E                     dE             d eps       ncg     rms          rms(c)
DAV:   1    -0.833026433706E+02   -0.16887E-01   -0.10046E+00  2000   0.455E+00    0.232E-01
RMM:   2    -0.833057012509E+02   -0.30579E-02   -0.37319E-02  2672   0.114E+00    0.129E-01
RMM:   3    -0.833062229930E+02   -0.52174E-03   -0.53460E-03  2767   0.346E-01    0.113E-01
RMM:   4    -0.833059507382E+02    0.27225E-03   -0.87614E-04  2566   0.160E-01    0.759E-02
RMM:   5    -0.833059580184E+02   -0.72802E-05   -0.26675E-04  2270   0.951E-02    0.400E-02
RMM:   6    -0.833059694383E+02   -0.11420E-04   -0.17725E-04  2125   0.718E-02    0.119E-02
RMM:   7    -0.833059692353E+02    0.20303E-06   -0.29844E-05  1463   0.374E-02
  22 F= -.86513707E+02 E0= -.86517801E+02  d E =-.195464E-01
       N       E                     dE             d eps       ncg     rms          rms(c)
DAV:   1    -0.833063529032E+02   -0.38346E-03   -0.90258E+00  2000   0.136E+01    0.701E-01
RMM:   2    -0.833347787622E+02   -0.28426E-01   -0.34072E-01  2663   0.341E+00    0.386E-01
RMM:   3    -0.833394206993E+02   -0.46419E-02   -0.47937E-02  2784   0.104E+00    0.345E-01
RMM:   4    -0.833368214387E+02    0.25993E-02   -0.74916E-03  2707   0.453E-01    0.231E-01
RMM:   5    -0.833367904602E+02    0.30979E-04   -0.24498E-03  2654   0.255E-01    0.126E-01
RMM:   6    -0.833367777595E+02    0.12701E-04   -0.14522E-03  2664   0.196E-01    0.347E-02
RMM:   7    -0.833367722785E+02    0.54809E-05   -0.29539E-04  2322   0.831E-02    0.186E-02
RMM:   8    -0.833367750269E+02   -0.27483E-05   -0.71354E-05  1802   0.462E-02
  23 F= -.86542728E+02 E0= -.86546901E+02  d E =-.485672E-01
       N       E                     dE             d eps       ncg     rms          rms(c)
DAV:   1    -0.833622429212E+02   -0.25471E-01   -0.88124E-01  2000   0.437E+00    0.322E-01
RMM:   2    -0.833651614602E+02   -0.29185E-02   -0.35933E-02  2680   0.119E+00    0.151E-01
RMM:   3    -0.833662722966E+02   -0.11108E-02   -0.68889E-03  2763   0.400E-01    0.149E-01
RMM:   4    -0.833654082034E+02    0.86409E-03   -0.13754E-03  2641   0.199E-01    0.795E-02
RMM:   5    -0.833654162295E+02   -0.80261E-05   -0.39869E-04  2455   0.103E-01    0.431E-02
RMM:   6    -0.833654183748E+02   -0.21453E-05   -0.15033E-04  2062   0.704E-02    0.102E-02
RMM:   7    -0.833654210264E+02   -0.26516E-05   -0.40685E-05  1532   0.393E-02
  24 F= -.86570539E+02 E0= -.86574685E+02  d E =-.278104E-01
       N       E                     dE             d eps       ncg     rms          rms(c)
DAV:   1    -0.833766263132E+02   -0.11208E-01   -0.78348E+00  2000   0.131E+01    0.977E-01
RMM:   2    -0.834042759761E+02   -0.27650E-01   -0.33812E-01  2695   0.354E+00    0.437E-01
RMM:   3    -0.834126468171E+02   -0.83708E-02   -0.55618E-02  2777   0.112E+00    0.408E-01
RMM:   4    -0.834065600443E+02    0.60868E-02   -0.11276E-02  2677   0.538E-01    0.244E-01
RMM:   5    -0.834063723383E+02    0.18771E-03   -0.33713E-03  2716   0.287E-01    0.129E-01
RMM:   6    -0.834063066157E+02    0.65723E-04   -0.14685E-03  2607   0.202E-01    0.377E-02
RMM:   7    -0.834062896191E+02    0.16997E-04   -0.31402E-04  2306   0.923E-02    0.233E-02
RMM:   8    -0.834063049957E+02   -0.15377E-04   -0.10731E-04  1975   0.421E-02    0.146E-02
RMM:   9    -0.834063162144E+02   -0.11219E-04   -0.17692E-05  1356   0.351E-02    0.424E-03
RMM:  10    -0.834063205737E+02   -0.43593E-05   -0.74858E-06  1221   0.236E-02
  25 F= -.86609051E+02 E0= -.86613009E+02  d E =-.663226E-01
       N       E                     dE             d eps       ncg     rms          rms(c)
DAV:   1    -0.834066181195E+02   -0.30191E-03   -0.73663E-02  2400   0.126E+00    0.952E-02
RMM:   2    -0.834068647472E+02   -0.24663E-03   -0.30918E-03  2675   0.351E-01    0.424E-02
RMM:   3    -0.834069565115E+02   -0.91764E-04   -0.58412E-04  2507   0.117E-01    0.398E-02
RMM:   4    -0.834068963956E+02    0.60116E-04   -0.12859E-04  2006   0.739E-02    0.238E-02
RMM:   5    -0.834068979178E+02   -0.15223E-05   -0.27272E-05  1426   0.394E-02
  26 F= -.86609406E+02 E0= -.86613340E+02  d E =-.666782E-01
       N       E                     dE             d eps       ncg     rms          rms(c)
DAV:   1    -0.834168138552E+02   -0.99175E-02   -0.20932E+00  2000   0.668E+00    0.338E-01
RMM:   2    -0.834237313190E+02   -0.69175E-02   -0.78102E-02  2668   0.181E+00    0.206E-01
RMM:   3    -0.834247964029E+02   -0.10651E-02   -0.13000E-02  2721   0.544E-01    0.134E-01
RMM:   4    -0.834250655921E+02   -0.26919E-03   -0.20968E-03  2682   0.239E-01    0.753E-02
RMM:   5    -0.834251688958E+02   -0.10330E-03   -0.66168E-04  2500   0.137E-01    0.529E-02
RMM:   6    -0.834250422139E+02    0.12668E-03   -0.16667E-04  2127   0.753E-02    0.136E-02
RMM:   7    -0.834250441189E+02   -0.19049E-05   -0.41529E-05  1571   0.464E-02
  27 F= -.86626735E+02 E0= -.86630532E+02  d E =-.173286E-01
       N       E                     dE             d eps       ncg     rms          rms(c)
DAV:   1    -0.833836376570E+02    0.41405E-01   -0.17960E+01  2000   0.195E+01    0.103E+00
RMM:   2    -0.834480373481E+02   -0.64400E-01   -0.71185E-01  2700   0.521E+00    0.598E-01
RMM:   3    -0.834552829470E+02   -0.72456E-02   -0.95609E-02  2735   0.147E+00    0.388E-01
RMM:   4    -0.834565156847E+02   -0.12327E-02   -0.15093E-02  2705   0.601E-01    0.222E-01
RMM:   5    -0.834574165933E+02   -0.90091E-03   -0.45308E-03  2617   0.356E-01    0.126E-01
RMM:   6    -0.834564893331E+02    0.92726E-03   -0.14148E-03  2607   0.216E-01    0.428E-02
RMM:   7    -0.834564896728E+02   -0.33975E-06   -0.38716E-04  2413   0.933E-02    0.226E-02
RMM:   8    -0.834565026744E+02   -0.13002E-04   -0.11546E-04  2009   0.522E-02    0.128E-02
RMM:   9    -0.834565151516E+02   -0.12477E-04   -0.33363E-05  1513   0.385E-02    0.673E-03
RMM:  10    -0.834565215811E+02   -0.64295E-05   -0.13799E-05  1252   0.328E-02
  28 F= -.86655751E+02 E0= -.86659142E+02  d E =-.463450E-01
       N       E                     dE             d eps       ncg     rms          rms(c)
DAV:   1    -0.834505781793E+02    0.59370E-02   -0.24269E+00  2000   0.709E+00    0.361E-01
RMM:   2    -0.834584650642E+02   -0.78869E-02   -0.89300E-02  2670   0.192E+00    0.222E-01
RMM:   3    -0.834596671917E+02   -0.12021E-02   -0.14792E-02  2702   0.578E-01    0.143E-01
RMM:   4    -0.834600634234E+02   -0.39623E-03   -0.25723E-03  2693   0.267E-01    0.883E-02
RMM:   5    -0.834600565787E+02    0.68447E-05   -0.75988E-04  2527   0.146E-01    0.587E-02
RMM:   6    -0.834599609200E+02    0.95659E-04   -0.19701E-04  2229   0.878E-02    0.141E-02
RMM:   7    -0.834599661214E+02   -0.52014E-05   -0.51467E-05  1651   0.448E-02
  29 F= -.86658263E+02 E0= -.86661489E+02  d E =-.488569E-01
       N       E                     dE             d eps       ncg     rms          rms(c)
DAV:   1    -0.834559358465E+02    0.40251E-02   -0.51137E+00  2000   0.101E+01    0.550E-01
RMM:   2    -0.834721935719E+02   -0.16258E-01   -0.19039E-01  2612   0.260E+00    0.384E-01
RMM:   3    -0.834737202336E+02   -0.15267E-02   -0.22829E-02  2711   0.730E-01    0.265E-01
RMM:   4    -0.834754779046E+02   -0.17577E-02   -0.62574E-03  2711   0.392E-01    0.213E-01
RMM:   5    -0.834739381458E+02    0.15398E-02   -0.23524E-03  2526   0.258E-01    0.869E-02
RMM:   6    -0.834739546267E+02   -0.16481E-04   -0.87143E-04  2575   0.148E-01    0.304E-02
RMM:   7    -0.834739568952E+02   -0.22685E-05   -0.17964E-04  2046   0.731E-02    0.173E-02
RMM:   8    -0.834739604254E+02   -0.35302E-05   -0.44081E-05  1606   0.412E-02
  30 F= -.86670583E+02 E0= -.86673602E+02  d E =-.123199E-01
       N       E                     dE             d eps       ncg     rms          rms(c)
DAV:   1    -0.834737583092E+02    0.19859E-03   -0.36847E-02  2400   0.865E-01    0.453E-02
RMM:   2    -0.834738834879E+02   -0.12518E-03   -0.14596E-03  2563   0.237E-01    0.341E-02
RMM:   3    -0.834738977871E+02   -0.14299E-04   -0.17284E-04  1828   0.670E-02    0.250E-02
RMM:   4    -0.834739065924E+02   -0.88053E-05   -0.37929E-05  1525   0.552E-02
  31 F= -.86670674E+02 E0= -.86673741E+02  d E =-.124106E-01
       N       E                     dE             d eps       ncg     rms          rms(c)
DAV:   1    -0.834795585015E+02   -0.56607E-02   -0.50510E-01  2000   0.332E+00    0.168E-01
RMM:   2    -0.834808121559E+02   -0.12537E-02   -0.15039E-02  2522   0.912E-01    0.123E-01
RMM:   3    -0.834812628395E+02   -0.45068E-03   -0.47604E-03  2671   0.321E-01    0.797E-02
RMM:   4    -0.834814238367E+02   -0.16100E-03   -0.96063E-04  2519   0.168E-01    0.734E-02
RMM:   5    -0.834813107668E+02    0.11307E-03   -0.14817E-04  2001   0.815E-02    0.382E-02
RMM:   6    -0.834813314717E+02   -0.20705E-04   -0.10386E-04  1985   0.564E-02    0.112E-02
RMM:   7    -0.834813321551E+02   -0.68342E-06   -0.16840E-05  1283   0.302E-02
  32 F= -.86677310E+02 E0= -.86680285E+02  d E =-.663620E-02
       N       E                     dE             d eps       ncg     rms          rms(c)
DAV:   1    -0.834766019429E+02    0.47295E-02   -0.45279E+00  2000   0.995E+00    0.507E-01
RMM:   2    -0.834893849168E+02   -0.12783E-01   -0.14604E-01  2582   0.267E+00    0.354E-01
RMM:   3    -0.834925543976E+02   -0.31695E-02   -0.34954E-02  2734   0.849E-01    0.235E-01
RMM:   4    -0.834940680111E+02   -0.15136E-02   -0.75405E-03  2738   0.429E-01    0.219E-01
RMM:   5    -0.834928018514E+02    0.12662E-02   -0.13865E-03  2442   0.229E-01    0.102E-01
RMM:   6    -0.834929257745E+02   -0.12392E-03   -0.79631E-04  2657   0.133E-01    0.246E-02
RMM:   7    -0.834929295633E+02   -0.37888E-05   -0.11489E-04  2000   0.502E-02    0.147E-02
RMM:   8    -0.834929293088E+02    0.25448E-06   -0.23363E-05  1391   0.372E-02
  33 F= -.86686516E+02 E0= -.86689349E+02  d E =-.158419E-01
       N       E                     dE             d eps       ncg     rms          rms(c)
DAV:   1    -0.834970956645E+02   -0.41661E-02   -0.13284E+00  2000   0.523E+00    0.254E-01
RMM:   2    -0.835011568207E+02   -0.40612E-02   -0.45786E-02  2628   0.140E+00    0.192E-01
RMM:   3    -0.835016786332E+02   -0.52181E-03   -0.68450E-03  2727   0.388E-01    0.134E-01
RMM:   4    -0.835021546564E+02   -0.47602E-03   -0.16797E-03  2673   0.212E-01    0.119E-01
RMM:   5    -0.835017352684E+02    0.41939E-03   -0.46341E-04  2318   0.135E-01    0.437E-02
RMM:   6    -0.835017653856E+02   -0.30117E-04   -0.22370E-04  2200   0.694E-02    0.138E-02
RMM:   7    -0.835017641907E+02    0.11949E-05   -0.30162E-05  1492   0.390E-02
  34 F= -.86693713E+02 E0= -.86696552E+02  d E =-.719680E-02
       N       E                     dE             d eps       ncg     rms          rms(c)
DAV:   1    -0.835020491652E+02   -0.28378E-03   -0.10591E+00  2000   0.466E+00    0.227E-01
RMM:   2    -0.835052630832E+02   -0.32139E-02   -0.36280E-02  2617   0.126E+00    0.170E-01
RMM:   3    -0.835057112357E+02   -0.44815E-03   -0.57349E-03  2714   0.354E-01    0.118E-01
RMM:   4    -0.835061058772E+02   -0.39464E-03   -0.13686E-03  2631   0.196E-01    0.104E-01
RMM:   5    -0.835057716419E+02    0.33424E-03   -0.36596E-04  2234   0.122E-01    0.393E-02
RMM:   6    -0.835057962510E+02   -0.24609E-04   -0.16915E-04  2090   0.617E-02    0.116E-02
RMM:   7    -0.835057967264E+02   -0.47533E-06   -0.23562E-05  1426   0.371E-02
  35 F= -.86696288E+02 E0= -.86699142E+02  d E =-.977247E-02
       N       E                     dE             d eps       ncg     rms          rms(c)
DAV:   1    -0.835131632187E+02   -0.73670E-02   -0.64504E-01  2000   0.366E+00    0.210E-01
RMM:   2    -0.835153956764E+02   -0.22325E-02   -0.26694E-02  2553   0.106E+00    0.112E-01
RMM:   3    -0.835157510757E+02   -0.35540E-03   -0.44601E-03  2750   0.318E-01    0.779E-02
RMM:   4    -0.835158289625E+02   -0.77887E-04   -0.70039E-04  2574   0.133E-01    0.622E-02
RMM:   5    -0.835157828935E+02    0.46069E-04   -0.26702E-04  2284   0.960E-02    0.371E-02
RMM:   6    -0.835157666533E+02    0.16240E-04   -0.12223E-04  1941   0.708E-02    0.131E-02
RMM:   7    -0.835157702351E+02   -0.35818E-05   -0.30198E-05  1468   0.401E-02
  36 F= -.86703907E+02 E0= -.86706765E+02  d E =-.761875E-02
       N       E                     dE             d eps       ncg     rms          rms(c)
DAV:   1    -0.835100099885E+02    0.57567E-02   -0.54004E+00  2000   0.106E+01    0.607E-01
RMM:   2    -0.835291156185E+02   -0.19106E-01   -0.22438E-01  2576   0.304E+00    0.323E-01
RMM:   3    -0.835318637369E+02   -0.27481E-02   -0.36894E-02  2786   0.912E-01    0.227E-01
RMM:   4    -0.835322780616E+02   -0.41432E-03   -0.52352E-03  2774   0.338E-01    0.177E-01
RMM:   5    -0.835321667952E+02    0.11127E-03   -0.23422E-03  2704   0.239E-01    0.115E-01
RMM:   6    -0.835318363487E+02    0.33045E-03   -0.97387E-04  2451   0.185E-01    0.385E-02
RMM:   7    -0.835318512776E+02   -0.14929E-04   -0.26989E-04  2225   0.791E-02    0.187E-02
RMM:   8    -0.835318577171E+02   -0.64395E-05   -0.57391E-05  1739   0.424E-02
  37 F= -.86713259E+02 E0= -.86716098E+02  d E =-.169709E-01
       N       E                     dE             d eps       ncg     rms          rms(c)
DAV:   1    -0.835348127209E+02   -0.29614E-02   -0.74642E-02  2400   0.125E+00    0.738E-02
RMM:   2    -0.835350822257E+02   -0.26950E-03   -0.31847E-03  2628   0.372E-01    0.342E-02
RMM:   3    -0.835351238316E+02   -0.41606E-04   -0.51871E-04  2426   0.106E-01    0.248E-02
RMM:   4    -0.835351325679E+02   -0.87362E-05   -0.92993E-05  1848   0.662E-02
  38 F= -.86715714E+02 E0= -.86718546E+02  d E =-.245495E-02
       N       E                     dE             d eps       ncg     rms          rms(c)
DAV:   1    -0.835403794677E+02   -0.52556E-02   -0.66678E-01  2000   0.374E+00    0.223E-01
RMM:   2    -0.835428042452E+02   -0.24248E-02   -0.28116E-02  2663   0.109E+00    0.106E-01
RMM:   3    -0.835432668728E+02   -0.46263E-03   -0.45572E-03  2763   0.313E-01    0.898E-02
RMM:   4    -0.835431458473E+02    0.12103E-03   -0.90899E-04  2662   0.146E-01    0.658E-02
RMM:   5    -0.835431135131E+02    0.32334E-04   -0.21655E-04  2272   0.779E-02    0.324E-02
RMM:   6    -0.835431133399E+02    0.17326E-06   -0.84059E-05  1846   0.697E-02
  39 F= -.86721247E+02 E0= -.86724110E+02  d E =-.798726E-02
       N       E                     dE             d eps       ncg     rms          rms(c)
DAV:   1    -0.835397973717E+02    0.33161E-02   -0.26661E+00  2000   0.748E+00    0.446E-01
RMM:   2    -0.835495983151E+02   -0.98009E-02   -0.11362E-01  2651   0.218E+00    0.208E-01
RMM:   3    -0.835508337818E+02   -0.12355E-02   -0.17741E-02  2787   0.616E-01    0.143E-01
RMM:   4    -0.835509587174E+02   -0.12494E-03   -0.29943E-03  2788   0.249E-01    0.952E-02
RMM:   5    -0.835510259926E+02   -0.67275E-04   -0.83353E-04  2709   0.140E-01    0.577E-02
RMM:   6    -0.835509008002E+02    0.12519E-03   -0.32837E-04  2334   0.975E-02    0.273E-02
RMM:   7    -0.835508786167E+02    0.22183E-04   -0.51267E-05  1664   0.533E-02    0.995E-03
RMM:   8    -0.835508866215E+02   -0.80048E-05   -0.29965E-05  1514   0.303E-02
  40 F= -.86724173E+02 E0= -.86727094E+02  d E =-.109132E-01
       N       E                     dE             d eps       ncg     rms          rms(c)
DAV:   1    -0.835495261468E+02    0.13525E-02   -0.14008E-01  2096   0.171E+00    0.101E-01
RMM:   2    -0.835500061975E+02   -0.48005E-03   -0.56547E-03  2612   0.503E-01    0.468E-02
RMM:   3    -0.835500825383E+02   -0.76341E-04   -0.94994E-04  2567   0.144E-01    0.342E-02
RMM:   4    -0.835501024298E+02   -0.19891E-04   -0.17306E-04  2127   0.783E-02    0.269E-02
RMM:   5    -0.835500990949E+02    0.33349E-05   -0.36370E-05  1507   0.452E-02
  41 F= -.86724490E+02 E0= -.86727375E+02  d E =-.112310E-01
       N       E                     dE             d eps       ncg     rms          rms(c)
DAV:   1    -0.835522589193E+02   -0.21565E-02   -0.56210E-02  2224   0.103E+00    0.516E-02
RMM:   2    -0.835524291749E+02   -0.17026E-03   -0.19619E-03  2693   0.282E-01    0.278E-02
RMM:   3    -0.835524666637E+02   -0.37489E-04   -0.36795E-04  2108   0.851E-02    0.237E-02
RMM:   4    -0.835524582517E+02    0.84120E-05   -0.54622E-05  1506   0.543E-02
  42 F= -.86726224E+02 E0= -.86729137E+02  d E =-.173384E-02
       N       E                     dE             d eps       ncg     rms          rms(c)
DAV:   1    -0.835561274641E+02   -0.36608E-02   -0.50252E-01  2000   0.309E+00    0.157E-01
RMM:   2    -0.835576509050E+02   -0.15234E-02   -0.17687E-02  2646   0.836E-01    0.867E-02
RMM:   3    -0.835578630736E+02   -0.21217E-03   -0.25225E-03  2670   0.235E-01    0.659E-02
RMM:   4    -0.835578800196E+02   -0.16946E-04   -0.50530E-04  2415   0.121E-01    0.522E-02
RMM:   5    -0.835578521731E+02    0.27846E-04   -0.15043E-04  2042   0.757E-02    0.263E-02
RMM:   6    -0.835578454754E+02    0.66978E-05   -0.55274E-05  1647   0.567E-02
  43 F= -.86729739E+02 E0= -.86732700E+02  d E =-.524875E-02
       N       E                     dE             d eps       ncg     rms          rms(c)
DAV:   1    -0.835538254848E+02    0.40267E-02   -0.20129E+00  2000   0.618E+00    0.313E-01
RMM:   2    -0.835598544100E+02   -0.60289E-02   -0.68976E-02  2637   0.169E+00    0.165E-01
RMM:   3    -0.835609485508E+02   -0.10941E-02   -0.12510E-02  2725   0.500E-01    0.129E-01
RMM:   4    -0.835609708840E+02   -0.22333E-04   -0.20685E-03  2737   0.228E-01    0.102E-01
RMM:   5    -0.835609012582E+02    0.69626E-04   -0.57899E-04  2498   0.127E-01    0.560E-02
RMM:   6    -0.835608632322E+02    0.38026E-04   -0.21823E-04  2149   0.966E-02    0.149E-02
RMM:   7    -0.835608696508E+02   -0.64186E-05   -0.68478E-05  1802   0.409E-02
  44 F= -.86729035E+02 E0= -.86732087E+02  d E =-.454425E-02
       N       E                     dE             d eps       ncg     rms          rms(c)
DAV:   1    -0.835584664142E+02    0.23968E-02   -0.62583E-01  2000   0.344E+00    0.176E-01
RMM:   2    -0.835601498500E+02   -0.16834E-02   -0.19782E-02  2636   0.915E-01    0.903E-02
RMM:   3    -0.835605120826E+02   -0.36223E-03   -0.40252E-03  2695   0.274E-01    0.727E-02
RMM:   4    -0.835604979039E+02    0.14179E-04   -0.63285E-04  2473   0.129E-01    0.584E-02
RMM:   5    -0.835604882326E+02    0.96713E-05   -0.14585E-04  2037   0.686E-02    0.324E-02
RMM:   6    -0.835604880256E+02    0.20701E-06   -0.77502E-05  1766   0.634E-02
  45 F= -.86730728E+02 E0= -.86733741E+02  d E =-.623814E-02
       N       E                     dE             d eps       ncg     rms          rms(c)
DAV:   1    -0.835641532189E+02   -0.36650E-02   -0.74516E-02  2016   0.122E+00    0.824E-02
RMM:   2    -0.835644137883E+02   -0.26057E-03   -0.32762E-03  2619   0.365E-01    0.416E-02
RMM:   3    -0.835644820809E+02   -0.68293E-04   -0.57389E-04  2527   0.114E-01    0.372E-02
RMM:   4    -0.835644318376E+02    0.50243E-04   -0.83988E-05  1847   0.688E-02    0.238E-02
RMM:   5    -0.835644284059E+02    0.34316E-05   -0.25427E-05  1392   0.405E-02
  46 F= -.86733361E+02 E0= -.86736405E+02  d E =-.263242E-02
       N       E                     dE             d eps       ncg     rms          rms(c)
DAV:   1    -0.835709485734E+02   -0.65167E-02   -0.66327E-01  2000   0.366E+00    0.254E-01
RMM:   2    -0.835733896800E+02   -0.24411E-02   -0.30222E-02  2620   0.110E+00    0.126E-01
RMM:   3    -0.835740050138E+02   -0.61533E-03   -0.54360E-03  2780   0.348E-01    0.111E-01
RMM:   4    -0.835735907141E+02    0.41430E-03   -0.84336E-04  2640   0.157E-01    0.732E-02
RMM:   5    -0.835735456651E+02    0.45049E-04   -0.29550E-04  2351   0.984E-02    0.438E-02
RMM:   6    -0.835735444174E+02    0.12478E-05   -0.16714E-04  2117   0.675E-02    0.143E-02
RMM:   7    -0.835735454971E+02   -0.10797E-05   -0.28149E-05  1451   0.411E-02
  47 F= -.86738574E+02 E0= -.86741717E+02  d E =-.784554E-02
       N       E                     dE             d eps       ncg     rms          rms(c)
DAV:   1    -0.835693683404E+02    0.41761E-02   -0.26626E+00  2000   0.734E+00    0.512E-01
RMM:   2    -0.835792612226E+02   -0.98929E-02   -0.12085E-01  2604   0.221E+00    0.256E-01
RMM:   3    -0.835817718051E+02   -0.25106E-02   -0.22538E-02  2788   0.710E-01    0.225E-01
RMM:   4    -0.835800883971E+02    0.16834E-02   -0.34354E-03  2713   0.310E-01    0.148E-01
RMM:   5    -0.835799135480E+02    0.17485E-03   -0.11860E-03  2600   0.186E-01    0.920E-02
RMM:   6    -0.835798874526E+02    0.26095E-04   -0.65664E-04  2560   0.128E-01    0.284E-02
RMM:   7    -0.835798898201E+02   -0.23675E-05   -0.12433E-04  1992   0.687E-02    0.149E-02
RMM:   8    -0.835798966959E+02   -0.68758E-05   -0.39503E-05  1582   0.368E-02
  48 F= -.86737206E+02 E0= -.86740573E+02  d E =-.647736E-02
       N       E                     dE             d eps       ncg     rms          rms(c)
DAV:   1    -0.835744978817E+02    0.53919E-02   -0.91450E-01  2000   0.430E+00    0.301E-01
RMM:   2    -0.835779370709E+02   -0.34392E-02   -0.41654E-02  2589   0.132E+00    0.152E-01
RMM:   3    -0.835788306625E+02   -0.89359E-03   -0.80285E-03  2783   0.426E-01    0.135E-01
RMM:   4    -0.835781395101E+02    0.69115E-03   -0.11903E-03  2638   0.195E-01    0.850E-02
RMM:   5    -0.835780893696E+02    0.50140E-04   -0.41787E-04  2418   0.116E-01    0.504E-02
RMM:   6    -0.835780834270E+02    0.59426E-05   -0.26372E-04  2307   0.793E-02    0.169E-02
RMM:   7    -0.835780813039E+02    0.21231E-05   -0.40426E-05  1592   0.454E-02
  49 F= -.86739908E+02 E0= -.86743135E+02  d E =-.917926E-02
       N       E                     dE             d eps       ncg     rms          rms(c)
DAV:   1    -0.835815226048E+02   -0.34392E-02   -0.15942E-01  2000   0.183E+00    0.119E-01
RMM:   2    -0.835821992438E+02   -0.67664E-03   -0.79484E-03  2713   0.544E-01    0.618E-02
RMM:   3    -0.835822545822E+02   -0.55338E-04   -0.11753E-03  2700   0.150E-01    0.429E-02
RMM:   4    -0.835822650959E+02   -0.10514E-04   -0.18981E-04  2195   0.798E-02    0.330E-02
RMM:   5    -0.835822469607E+02    0.18135E-04   -0.78423E-05  1806   0.563E-02    0.193E-02
RMM:   6    -0.835822379267E+02    0.90339E-05   -0.23725E-05  1401   0.431E-02
  50 F= -.86742443E+02 E0= -.86745730E+02  d E =-.253541E-02
       N       E                     dE             d eps       ncg     rms          rms(c)
DAV:   1    -0.835836372972E+02   -0.13903E-02   -0.95638E-02  2064   0.142E+00    0.946E-02
RMM:   2    -0.835840375432E+02   -0.40025E-03   -0.48176E-03  2675   0.436E-01    0.488E-02
RMM:   3    -0.835840806035E+02   -0.43060E-04   -0.81023E-04  2606   0.127E-01    0.350E-02
RMM:   4    -0.835840823386E+02   -0.17352E-05   -0.13793E-04  2039   0.745E-02    0.255E-02
RMM:   5    -0.835840794403E+02    0.28983E-05   -0.56256E-05  1685   0.487E-02
  51 F= -.86743034E+02 E0= -.86746408E+02  d E =-.312588E-02
       N       E                     dE             d eps       ncg     rms          rms(c)
DAV:   1    -0.835864184070E+02   -0.23361E-02   -0.80768E-02  2000   0.131E+00    0.667E-02
RMM:   2    -0.835866824670E+02   -0.26406E-03   -0.31310E-03  2640   0.384E-01    0.400E-02
RMM:   3    -0.835867245590E+02   -0.42092E-04   -0.52872E-04  2356   0.113E-01    0.281E-02
RMM:   4    -0.835867404807E+02   -0.15922E-04   -0.12808E-04  1978   0.761E-02    0.243E-02
RMM:   5    -0.835867301232E+02    0.10358E-04   -0.18911E-05  1308   0.364E-02    0.128E-02
RMM:   6    -0.835867323172E+02   -0.21940E-05   -0.11590E-05  1226   0.315E-02
  52 F= -.86744702E+02 E0= -.86748081E+02  d E =-.166846E-02
       N       E                     dE             d eps       ncg     rms          rms(c)
DAV:   1    -0.835907076542E+02   -0.39775E-02   -0.72737E-01  2000   0.393E+00    0.198E-01
RMM:   2    -0.835929465905E+02   -0.22389E-02   -0.26495E-02  2525   0.115E+00    0.120E-01
RMM:   3    -0.835933767839E+02   -0.43019E-03   -0.53557E-03  2701   0.352E-01    0.773E-02
RMM:   4    -0.835934609202E+02   -0.84136E-04   -0.86803E-04  2578   0.154E-01    0.522E-02
RMM:   5    -0.835934759504E+02   -0.15030E-04   -0.23947E-04  2246   0.813E-02    0.273E-02
RMM:   6    -0.835934786601E+02   -0.27097E-05   -0.62999E-05  1731   0.530E-02
  53 F= -.86748506E+02 E0= -.86751947E+02  d E =-.547264E-02
       N       E                     dE             d eps       ncg     rms          rms(c)
DAV:   1    -0.835901005055E+02    0.33754E-02   -0.29105E+00  2000   0.786E+00    0.399E-01
RMM:   2    -0.835993624028E+02   -0.92619E-02   -0.10772E-01  2527   0.230E+00    0.242E-01
RMM:   3    -0.836011101099E+02   -0.17477E-02   -0.21873E-02  2716   0.714E-01    0.156E-01
RMM:   4    -0.836013637931E+02   -0.25368E-03   -0.37014E-03  2762   0.305E-01    0.109E-01
RMM:   5    -0.836014062886E+02   -0.42495E-04   -0.74636E-04  2443   0.166E-01    0.524E-02
RMM:   6    -0.836014249014E+02   -0.18613E-04   -0.46761E-04  2446   0.920E-02    0.371E-02
RMM:   7    -0.836013785588E+02    0.46343E-04   -0.76274E-05  1837   0.563E-02    0.132E-02
RMM:   8    -0.836013825086E+02   -0.39498E-05   -0.25895E-05  1444   0.309E-02
  54 F= -.86750576E+02 E0= -.86754247E+02  d E =-.754221E-02
       N       E                     dE             d eps       ncg     rms          rms(c)
DAV:   1    -0.836040614705E+02   -0.26829E-02   -0.17620E-01  2048   0.196E+00    0.108E-01
RMM:   2    -0.836046063500E+02   -0.54488E-03   -0.67779E-03  2580   0.569E-01    0.627E-02
RMM:   3    -0.836047215775E+02   -0.11523E-03   -0.13839E-03  2646   0.171E-01    0.427E-02
RMM:   4    -0.836047408374E+02   -0.19260E-04   -0.16468E-04  2041   0.754E-02    0.320E-02
RMM:   5    -0.836047469501E+02   -0.61127E-05   -0.87929E-05  1837   0.584E-02
  55 F= -.86752342E+02 E0= -.86756098E+02  d E =-.176619E-02
       N       E                     dE             d eps       ncg     rms          rms(c)
DAV:   1    -0.836064750706E+02   -0.17342E-02   -0.28566E-01  2000   0.250E+00    0.137E-01
RMM:   2    -0.836073454093E+02   -0.87034E-03   -0.10993E-02  2606   0.726E-01    0.825E-02
RMM:   3    -0.836075276945E+02   -0.18229E-03   -0.22459E-03  2735   0.220E-01    0.562E-02
RMM:   4    -0.836075673002E+02   -0.39606E-04   -0.37003E-04  2440   0.995E-02    0.424E-02
RMM:   5    -0.836075758031E+02   -0.85029E-05   -0.83321E-05  1819   0.664E-02
  56 F= -.86753132E+02 E0= -.86756830E+02  d E =-.255610E-02
       N       E                     dE             d eps       ncg     rms          rms(c)
DAV:   1    -0.836086302669E+02   -0.10630E-02   -0.19828E-02  2384   0.643E-01    0.461E-02
RMM:   2    -0.836087397576E+02   -0.10949E-03   -0.14514E-03  2794   0.204E-01    0.273E-02
RMM:   3    -0.836087508856E+02   -0.11128E-04   -0.17787E-04  2218   0.560E-02    0.203E-02
RMM:   4    -0.836087477660E+02    0.31196E-05   -0.38642E-05  1572   0.491E-02
  57 F= -.86754030E+02 E0= -.86757816E+02  d E =-.898035E-03
       N       E                     dE             d eps       ncg     rms          rms(c)
DAV:   1    -0.836093031390E+02   -0.55225E-03   -0.25882E-02  2144   0.722E-01    0.554E-02
RMM:   2    -0.836094262415E+02   -0.12310E-03   -0.16622E-03  2793   0.230E-01    0.345E-02
RMM:   3    -0.836094470674E+02   -0.20826E-04   -0.24417E-04  2318   0.666E-02    0.280E-02
RMM:   4    -0.836094283483E+02    0.18719E-04   -0.54886E-05  1726   0.554E-02    0.203E-02
RMM:   5    -0.836094251925E+02    0.31557E-05   -0.13555E-05  1267   0.275E-02
  58 F= -.86754394E+02 E0= -.86758153E+02  d E =-.126180E-02
       N       E                     dE             d eps       ncg     rms          rms(c)
DAV:   1    -0.836101908732E+02   -0.76252E-03   -0.51240E-03  2256   0.313E-01    0.194E-02
RMM:   2    -0.836102163538E+02   -0.25481E-04   -0.29918E-04  2537   0.106E-01    0.134E-02
RMM:   3    -0.836102183813E+02   -0.20275E-05   -0.35098E-05  1495   0.274E-02
  59 F= -.86755023E+02 E0= -.86758782E+02  d E =-.629350E-03
       N       E                     dE             d eps       ncg     rms          rms(c)
DAV:   1    -0.836118869640E+02   -0.16706E-02   -0.45779E-02  2000   0.927E-01    0.619E-02
RMM:   2    -0.836120925139E+02   -0.20555E-03   -0.23742E-03  2654   0.319E-01    0.422E-02
RMM:   3    -0.836121306273E+02   -0.38113E-04   -0.42251E-04  2426   0.910E-02    0.360E-02
RMM:   4    -0.836121073790E+02    0.23248E-04   -0.82761E-05  1859   0.660E-02    0.229E-02
RMM:   5    -0.836121029184E+02    0.44606E-05   -0.35201E-05  1538   0.369E-02
  60 F= -.86756418E+02 E0= -.86760148E+02  d E =-.202472E-02
       N       E                     dE             d eps       ncg     rms          rms(c)
DAV:   1    -0.836127588358E+02   -0.65146E-03   -0.18184E-01  2000   0.185E+00    0.119E-01
RMM:   2    -0.836135564797E+02   -0.79764E-03   -0.94011E-03  2647   0.629E-01    0.774E-02
RMM:   3    -0.836136710330E+02   -0.11455E-03   -0.16430E-03  2753   0.162E-01    0.528E-02
RMM:   4    -0.836136739876E+02   -0.29546E-05   -0.28143E-04  2353   0.849E-02    0.310E-02
RMM:   5    -0.836136816389E+02   -0.76513E-05   -0.98236E-05  1922   0.693E-02
  61 F= -.86757030E+02 E0= -.86760660E+02  d E =-.263625E-02
       N       E                     dE             d eps       ncg     rms          rms(c)
DAV:   1    -0.836134371577E+02    0.23683E-03   -0.15601E-02  2016   0.544E-01    0.337E-02
RMM:   2    -0.836135145787E+02   -0.77421E-04   -0.84132E-04  2715   0.184E-01    0.219E-02
RMM:   3    -0.836135240854E+02   -0.95067E-05   -0.11589E-04  1897   0.499E-02    0.190E-02
RMM:   4    -0.836135167922E+02    0.72932E-05   -0.19398E-05  1302   0.429E-02
  62 F= -.86757143E+02 E0= -.86760835E+02  d E =-.274977E-02
       N       E                     dE             d eps       ncg     rms          rms(c)
DAV:   1    -0.836138425965E+02   -0.31851E-03   -0.85267E-03  2208   0.425E-01    0.262E-02
RMM:   2    -0.836138751004E+02   -0.32504E-04   -0.41212E-04  2523   0.128E-01    0.140E-02
RMM:   3    -0.836138774161E+02   -0.23157E-05   -0.51902E-05  1513   0.393E-02
  63 F= -.86757375E+02 E0= -.86761056E+02  d E =-.231139E-03
       N       E                     dE             d eps       ncg     rms          rms(c)
DAV:   1    -0.836140699128E+02   -0.19481E-03   -0.81055E-03  2080   0.417E-01    0.297E-02
RMM:   2    -0.836141070033E+02   -0.37090E-04   -0.43808E-04  2607   0.126E-01    0.193E-02
RMM:   3    -0.836141097897E+02   -0.27864E-05   -0.58103E-05  1676   0.409E-02
  64 F= -.86757483E+02 E0= -.86761191E+02  d E =-.339177E-03
       N       E                     dE             d eps       ncg     rms          rms(c)
DAV:   1    -0.836144099206E+02   -0.30292E-03   -0.55322E-03  2016   0.354E-01    0.278E-02
RMM:   2    -0.836144352771E+02   -0.25356E-04   -0.33045E-04  2492   0.105E-01    0.156E-02
RMM:   3    -0.836144374782E+02   -0.22011E-05   -0.35799E-05  1449   0.339E-02
  65 F= -.86757687E+02 E0= -.86761373E+02  d E =-.204824E-03
       N       E                     dE             d eps       ncg     rms          rms(c)
DAV:   1    -0.836148351090E+02   -0.39983E-03   -0.32137E-02  2000   0.843E-01    0.642E-02
RMM:   2    -0.836149719583E+02   -0.13685E-03   -0.18514E-03  2761   0.262E-01    0.352E-02
RMM:   3    -0.836149752446E+02   -0.32863E-05   -0.24895E-04  2238   0.764E-02    0.235E-02
RMM:   4    -0.836149757202E+02   -0.47561E-06   -0.60340E-05  1707   0.545E-02
  66 F= -.86757928E+02 E0= -.86761577E+02  d E =-.445216E-03
       N       E                     dE             d eps       ncg     rms          rms(c)
DAV:   1    -0.836151818966E+02   -0.20665E-03   -0.27322E-03  2232   0.251E-01    0.253E-02
RMM:   2    -0.836152154580E+02   -0.33561E-04   -0.20342E-04  2402   0.844E-02    0.213E-02
RMM:   3    -0.836151897628E+02    0.25695E-04   -0.35215E-05  1514   0.422E-02    0.117E-02
RMM:   4    -0.836151895667E+02    0.19611E-06   -0.11211E-05  1218   0.317E-02
  67 F= -.86758060E+02 E0= -.86761683E+02  d E =-.131891E-03
       N       E                     dE             d eps       ncg     rms          rms(c)
DAV:   1    -0.836155257187E+02   -0.33596E-03   -0.23596E-02  2000   0.721E-01    0.602E-02
RMM:   2    -0.836156003138E+02   -0.74595E-04   -0.11047E-03  2645   0.212E-01    0.297E-02
RMM:   3    -0.836156138107E+02   -0.13497E-04   -0.18744E-04  2133   0.639E-02    0.221E-02
RMM:   4    -0.836156136956E+02    0.11503E-06   -0.37215E-05  1521   0.550E-02
  68 F= -.86758238E+02 E0= -.86761808E+02  d E =-.310230E-03
