       N       E                     dE             d eps       ncg     rms          rms(c)
DAV:   1     0.210317272980E+04    0.21032E+04   -0.91167E+04  5544   0.162E+03
DAV:   2     0.257091898786E+03   -0.18461E+04   -0.18039E+04  5304   0.463E+02
DAV:   3    -0.523599226686E+02   -0.30945E+03   -0.30103E+03  6008   0.199E+02
DAV:   4    -0.770892186936E+02   -0.24729E+02   -0.24274E+02  6656   0.541E+01
DAV:   5    -0.796602014257E+02   -0.25710E+01   -0.25527E+01  8696   0.113E+01    0.405E+01
RMM:   6    -0.766210782000E+02    0.30391E+01   -0.47872E+00  6311   0.446E+00    0.268E+01
RMM:   7    -0.768576624872E+02   -0.23658E+00   -0.12513E+01  6587   0.662E+00    0.542E+00
RMM:   8    -0.765354961568E+02    0.32217E+00   -0.26548E+00  6724   0.350E+00    0.390E+00
RMM:   9    -0.764130182413E+02    0.12248E+00   -0.17787E+00  7032   0.253E+00    0.282E+00
RMM:  10    -0.762897500047E+02    0.12327E+00   -0.49679E-01  7246   0.164E+00    0.822E-01
RMM:  11    -0.763399382204E+02   -0.50188E-01   -0.48283E-01  8936   0.844E-01    0.944E-01
RMM:  12    -0.763402907400E+02   -0.35252E-03   -0.13693E-01  9242   0.518E-01    0.847E-01
RMM:  13    -0.763342118266E+02    0.60789E-02   -0.80924E-02  8117   0.505E-01    0.358E-01
RMM:  14    -0.763390053247E+02   -0.47935E-02   -0.56170E-02  9137   0.356E-01    0.346E-01
RMM:  15    -0.763431841769E+02   -0.41789E-02   -0.30613E-02  9020   0.259E-01    0.441E-01
RMM:  16    -0.763427943828E+02    0.38979E-03   -0.18921E-02  8507   0.204E-01    0.132E-01
RMM:  17    -0.763447446022E+02   -0.19502E-02   -0.22284E-02  8864   0.175E-01    0.145E-01
RMM:  18    -0.763457015351E+02   -0.95693E-03   -0.10279E-02  9020   0.125E-01    0.145E-01
RMM:  19    -0.763462792230E+02   -0.57769E-03   -0.65770E-03  8808   0.996E-02    0.457E-02
RMM:  20    -0.763469156441E+02   -0.63642E-03   -0.46227E-03  8777   0.783E-02    0.461E-02
RMM:  21    -0.763472244060E+02   -0.30876E-03   -0.29514E-03  8615   0.632E-02    0.303E-02
RMM:  22    -0.763474901579E+02   -0.26575E-03   -0.21408E-03  8160   0.506E-02    0.223E-02
RMM:  23    -0.763477104336E+02   -0.22028E-03   -0.13696E-03  7582   0.417E-02    0.300E-02
RMM:  24    -0.763478724079E+02   -0.16197E-03   -0.10148E-03  6326   0.336E-02    0.159E-02
RMM:  25    -0.763479519248E+02   -0.79517E-04   -0.68532E-04  5328   0.274E-02    0.167E-02
RMM:  26    -0.763480067355E+02   -0.54811E-04   -0.49594E-04  4583   0.224E-02    0.171E-02
RMM:  27    -0.763480412240E+02   -0.34488E-04   -0.32765E-04  4369   0.189E-02    0.147E-02
RMM:  28    -0.763480671851E+02   -0.25961E-04   -0.24018E-04  4198   0.156E-02    0.124E-02
RMM:  29    -0.763480808596E+02   -0.13675E-04   -0.15701E-04  4251   0.140E-02    0.568E-03
RMM:  30    -0.763480919799E+02   -0.11120E-04   -0.11737E-04  3822   0.107E-02    0.525E-03
RMM:  31    -0.763480992883E+02   -0.73084E-05   -0.78070E-05  3646   0.920E-03
   1 F= -.79260814E+02 E0= -.79261989E+02  d E =-.792608E+02
       N       E                     dE             d eps       ncg     rms          rms(c)
DAV:   1    -0.763581307524E+02   -0.10039E-01   -0.80061E+00  5856   0.828E+00    0.798E-01
RMM:   2    -0.764022363247E+02   -0.44106E-01   -0.48050E-01  6209   0.184E+00    0.461E-01
RMM:   3    -0.764107230488E+02   -0.84867E-02   -0.83012E-02  7895   0.905E-01    0.324E-01
RMM:   4    -0.764137342670E+02   -0.30112E-02   -0.16556E-02  8041   0.345E-01    0.278E-01
RMM:   5    -0.764121271584E+02    0.16071E-02   -0.40111E-03  7872   0.160E-01    0.144E-01
RMM:   6    -0.764121697002E+02   -0.42542E-04   -0.18487E-03  7575   0.913E-02    0.420E-02
RMM:   7    -0.764122720347E+02   -0.10233E-03   -0.89405E-04  6763   0.556E-02    0.223E-02
RMM:   8    -0.764123226634E+02   -0.50629E-04   -0.48572E-04  6393   0.383E-02    0.167E-02
RMM:   9    -0.764123591190E+02   -0.36456E-04   -0.29360E-04  5983   0.276E-02    0.104E-02
RMM:  10    -0.764123782785E+02   -0.19159E-04   -0.15624E-04  5679   0.211E-02    0.600E-03
RMM:  11    -0.764123916540E+02   -0.13376E-04   -0.10645E-04  5189   0.158E-02    0.253E-03
RMM:  12    -0.764124008578E+02   -0.92038E-05   -0.63189E-05  4573   0.125E-02
   2 F= -.79326717E+02 E0= -.79327793E+02  d E =-.659029E-01
       N       E                     dE             d eps       ncg     rms          rms(c)
DAV:   1    -0.760200750931E+02    0.39232E+00   -0.69388E+01  5136   0.225E+01    0.254E+00
RMM:   2    -0.764154796220E+02   -0.39540E+00   -0.44271E+00  6251   0.571E+00    0.141E+00
RMM:   3    -0.765020400755E+02   -0.86560E-01   -0.89178E-01  8186   0.306E+00    0.126E+00
RMM:   4    -0.765161062169E+02   -0.14066E-01   -0.11476E-01  7821   0.999E-01    0.107E+00
RMM:   5    -0.765134069478E+02    0.26993E-02   -0.39067E-02  8202   0.474E-01    0.491E-01
RMM:   6    -0.765118714404E+02    0.15355E-02   -0.15663E-02  8074   0.275E-01    0.188E-01
RMM:   7    -0.765127572301E+02   -0.88579E-03   -0.86959E-03  7906   0.183E-01    0.185E-01
RMM:   8    -0.765131441396E+02   -0.38691E-03   -0.49773E-03  7782   0.120E-01    0.809E-02
RMM:   9    -0.765134658886E+02   -0.32175E-03   -0.27320E-03  7147   0.810E-02    0.830E-02
RMM:  10    -0.765135641192E+02   -0.98231E-04   -0.15103E-03  6843   0.637E-02    0.235E-02
RMM:  11    -0.765136911312E+02   -0.12701E-03   -0.11303E-03  6590   0.461E-02    0.266E-02
RMM:  12    -0.765137589773E+02   -0.67846E-04   -0.59035E-04  6169   0.343E-02    0.129E-02
RMM:  13    -0.765138042129E+02   -0.45236E-04   -0.37512E-04  5846   0.271E-02    0.598E-03
RMM:  14    -0.765138351945E+02   -0.30982E-04   -0.26350E-04  5392   0.211E-02    0.301E-03
RMM:  15    -0.765138573769E+02   -0.22182E-04   -0.17426E-04  4894   0.169E-02    0.347E-03
RMM:  16    -0.765138675569E+02   -0.10180E-04   -0.11224E-04  4176   0.135E-02    0.310E-03
RMM:  17    -0.765138748880E+02   -0.73311E-05   -0.83907E-05  3744   0.112E-02
   3 F= -.79435432E+02 E0= -.79435073E+02  d E =-.174618E+00
       N       E                     dE             d eps       ncg     rms          rms(c)
DAV:   1    -0.764821223829E+02    0.31745E-01   -0.47071E+00  5480   0.577E+00    0.718E-01
RMM:   2    -0.765099099117E+02   -0.27788E-01   -0.31333E-01  6434   0.147E+00    0.429E-01
RMM:   3    -0.765149133437E+02   -0.50034E-02   -0.49545E-02  7945   0.721E-01    0.313E-01
RMM:   4    -0.765170757071E+02   -0.21624E-02   -0.96616E-03  8187   0.277E-01    0.247E-01
RMM:   5    -0.765155095202E+02    0.15662E-02   -0.24379E-03  7767   0.130E-01    0.109E-01
RMM:   6    -0.765155041995E+02    0.53206E-05   -0.12634E-03  7402   0.730E-02    0.320E-02
RMM:   7    -0.765155651867E+02   -0.60987E-04   -0.61994E-04  6751   0.446E-02    0.207E-02
RMM:   8    -0.765155989196E+02   -0.33733E-04   -0.30963E-04  6230   0.304E-02    0.127E-02
RMM:   9    -0.765156198276E+02   -0.20908E-04   -0.19059E-04  5710   0.222E-02    0.658E-03
RMM:  10    -0.765156325922E+02   -0.12765E-04   -0.10719E-04  5210   0.167E-02    0.355E-03
RMM:  11    -0.765156418418E+02   -0.92496E-05   -0.73816E-05  4708   0.132E-02
   4 F= -.79439688E+02 E0= -.79438744E+02  d E =-.178874E+00
       N       E                     dE             d eps       ncg     rms          rms(c)
DAV:   1    -0.764930512243E+02    0.22581E-01   -0.13537E+01  5744   0.900E+00    0.764E-01
RMM:   2    -0.765241626243E+02   -0.31111E-01   -0.33345E-01  5681   0.218E+00    0.303E-01
RMM:   3    -0.765386974072E+02   -0.14535E-01   -0.14403E-01  7528   0.129E+00    0.259E-01
RMM:   4    -0.765395134949E+02   -0.81609E-03   -0.12397E-02  7338   0.359E-01    0.292E-01
RMM:   5    -0.765392178247E+02    0.29567E-03   -0.28842E-03  7599   0.156E-01    0.254E-01
RMM:   6    -0.765392604780E+02   -0.42653E-04   -0.79674E-04  7098   0.686E-02    0.163E-01
RMM:   7    -0.765393289443E+02   -0.68466E-04   -0.81111E-04  6200   0.669E-02    0.179E-01
RMM:   8    -0.765393106586E+02    0.18286E-04   -0.21134E-04  5568   0.366E-02    0.967E-02
RMM:   9    -0.765393132768E+02   -0.26183E-05   -0.26448E-04  4977   0.286E-02    0.317E-02
RMM:  10    -0.765393200550E+02   -0.67782E-05   -0.89846E-05  4431   0.170E-02
   5 F= -.79464796E+02 E0= -.79462485E+02  d E =-.251080E-01
       N       E                     dE             d eps       ncg     rms          rms(c)
DAV:   1    -0.764669360257E+02    0.72377E-01   -0.24562E+01  5344   0.122E+01    0.109E+00
RMM:   2    -0.765255422415E+02   -0.58606E-01   -0.62997E-01  5738   0.296E+00    0.432E-01
RMM:   3    -0.765544391519E+02   -0.28897E-01   -0.27797E-01  7614   0.181E+00    0.391E-01
RMM:   4    -0.765545026552E+02   -0.63503E-04   -0.23715E-02  7381   0.495E-01    0.411E-01
RMM:   5    -0.765541024242E+02    0.40023E-03   -0.56008E-03  7743   0.220E-01    0.353E-01
RMM:   6    -0.765541975447E+02   -0.95121E-04   -0.15254E-03  7272   0.961E-02    0.223E-01
RMM:   7    -0.765543127142E+02   -0.11517E-03   -0.13680E-03  6353   0.895E-02    0.225E-01
RMM:   8    -0.765542880961E+02    0.24618E-04   -0.39282E-04  6280   0.489E-02    0.120E-01
RMM:   9    -0.765543002274E+02   -0.12131E-04   -0.46041E-04  5445   0.383E-02    0.377E-02
RMM:  10    -0.765543136224E+02   -0.13395E-04   -0.15970E-04  4746   0.218E-02    0.176E-02
RMM:  11    -0.765543256083E+02   -0.11986E-04   -0.10132E-04  4362   0.152E-02    0.340E-02
RMM:  12    -0.765543324616E+02   -0.68533E-05   -0.57198E-05  4050   0.126E-02
   6 F= -.79482053E+02 E0= -.79477983E+02  d E =-.423651E-01
       N       E                     dE             d eps       ncg     rms          rms(c)
DAV:   1    -0.765439747512E+02    0.10351E-01   -0.32674E+00  5936   0.440E+00    0.362E-01
RMM:   2    -0.765512557159E+02   -0.72810E-02   -0.77560E-02  5653   0.105E+00    0.138E-01
RMM:   3    -0.765547279227E+02   -0.34722E-02   -0.32292E-02  7426   0.607E-01    0.135E-01
RMM:   4    -0.765547077680E+02    0.20155E-04   -0.30032E-03  7196   0.175E-01    0.137E-01
RMM:   5    -0.765547019447E+02    0.58233E-05   -0.70419E-04  7184   0.747E-02    0.122E-01
RMM:   6    -0.765547103407E+02   -0.83961E-05   -0.21561E-04  5870   0.342E-02    0.663E-02
RMM:   7    -0.765547368904E+02   -0.26550E-04   -0.21975E-04  5079   0.321E-02    0.893E-02
RMM:   8    -0.765547306776E+02    0.62128E-05   -0.64269E-05  4669   0.180E-02
   7 F= -.79483365E+02 E0= -.79478718E+02  d E =-.436766E-01
       N       E                     dE             d eps       ncg     rms          rms(c)
DAV:   1    -0.765481130313E+02    0.66239E-02   -0.25438E+00  5376   0.409E+00    0.392E-01
RMM:   2    -0.765563938208E+02   -0.82808E-02   -0.84214E-02  5958   0.102E+00    0.214E-01
RMM:   3    -0.765596982832E+02   -0.33045E-02   -0.26404E-02  7584   0.548E-01    0.244E-01
RMM:   4    -0.765585438859E+02    0.11544E-02   -0.32468E-03  7669   0.186E-01    0.139E-01
RMM:   5    -0.765586096220E+02   -0.65736E-04   -0.74100E-04  7664   0.780E-02    0.969E-02
RMM:   6    -0.765585966744E+02    0.12948E-04   -0.35680E-04  6582   0.441E-02    0.195E-02
RMM:   7    -0.765586139798E+02   -0.17305E-04   -0.15884E-04  5709   0.264E-02    0.186E-02
RMM:   8    -0.765586183080E+02   -0.43283E-05   -0.87739E-05  4919   0.179E-02
   8 F= -.79487323E+02 E0= -.79482628E+02  d E =-.395857E-02
