       N       E                     dE             d eps       ncg     rms          rms(c)
DAV:   1     0.220204398234E+04    0.22020E+04   -0.92011E+04  5728   0.157E+03
DAV:   2     0.280702508167E+03   -0.19213E+04   -0.18660E+04  5656   0.450E+02
DAV:   3    -0.635448795680E+02   -0.34425E+03   -0.33512E+03  6560   0.198E+02
DAV:   4    -0.926007498806E+02   -0.29056E+02   -0.28536E+02  6776   0.556E+01
DAV:   5    -0.958392741577E+02   -0.32385E+01   -0.32120E+01  9376   0.121E+01    0.548E+01
DAV:   6    -0.907663131500E+02    0.50730E+01   -0.37728E+01  9272   0.210E+01    0.351E+01
DAV:   7    -0.111222210219E+03   -0.20456E+02   -0.16184E+02  9560   0.286E+01    0.308E+01
DAV:   8    -0.991757120341E+02    0.12046E+02   -0.11017E+02  7992   0.257E+01    0.184E+01
DAV:   9    -0.905961338562E+02    0.85796E+01   -0.40509E+01  7416   0.111E+01    0.108E+01
DAV:  10    -0.891349208486E+02    0.14612E+01   -0.79777E+00  7136   0.578E+00    0.767E+00
DAV:  11    -0.890934982126E+02    0.41423E-01   -0.95607E-01  7008   0.223E+00    0.743E+00
DAV:  12    -0.893705569147E+02   -0.27706E+00   -0.53506E-02  9128   0.750E-01    0.821E+00
DAV:  13    -0.875671265836E+02    0.18034E+01   -0.28950E+00  7256   0.491E+00    0.330E+00
DAV:  14    -0.877145341562E+02   -0.14741E+00   -0.15124E+00  7000   0.186E+00    0.387E+00
DAV:  15    -0.877460724365E+02   -0.31538E-01   -0.10032E+00  7440   0.181E+00    0.319E+00
DAV:  16    -0.876860982708E+02    0.59974E-01   -0.14771E-01  7240   0.784E-01    0.257E+00
DAV:  17    -0.876879455284E+02   -0.18473E-02   -0.13262E-01  7656   0.103E+00    0.203E+00
DAV:  18    -0.876816947798E+02    0.62507E-02   -0.27171E-02  6992   0.435E-01    0.165E+00
DAV:  19    -0.876790422454E+02    0.26525E-02   -0.17627E-02  8376   0.235E-01    0.137E+00
DAV:  20    -0.876748296588E+02    0.42126E-02   -0.10587E-02  8440   0.321E-01    0.764E-01
DAV:  21    -0.876752995652E+02   -0.46991E-03   -0.55125E-03  7448   0.270E-01    0.421E-01
DAV:  22    -0.876747516656E+02    0.54790E-03   -0.13323E-03  7336   0.155E-01    0.361E-01
DAV:  23    -0.876749682152E+02   -0.21655E-03   -0.52634E-04  6568   0.815E-02    0.277E-01
DAV:  24    -0.876747241827E+02    0.24403E-03   -0.14460E-03  6608   0.903E-02    0.139E-01
DAV:  25    -0.876750943766E+02   -0.37019E-03   -0.35687E-04  5560   0.665E-02    0.790E-02
DAV:  26    -0.876752859288E+02   -0.19155E-03   -0.23225E-04  5912   0.348E-02    0.546E-02
DAV:  27    -0.876754727598E+02   -0.18683E-03   -0.78665E-05  5632   0.448E-02    0.967E-02
DAV:  28    -0.876755618209E+02   -0.89061E-04   -0.14556E-04  5480   0.311E-02    0.868E-02
DAV:  29    -0.876756113873E+02   -0.49566E-04   -0.32349E-05  4512   0.207E-02    0.596E-02
DAV:  30    -0.876756731180E+02   -0.61731E-04   -0.98400E-06  4528   0.149E-02    0.399E-02
DAV:  31    -0.876757139164E+02   -0.40798E-04   -0.31984E-06  4056   0.793E-03    0.280E-02
DAV:  32    -0.876757454834E+02   -0.31567E-04   -0.62702E-06  4184   0.114E-02    0.145E-02
DAV:  33    -0.876757580725E+02   -0.12589E-04   -0.24770E-06  3744   0.774E-03    0.523E-03
DAV:  34    -0.876757642669E+02   -0.61944E-05   -0.15946E-06  3664   0.434E-03
   1 F= -.90707812E+02 E0= -.90701225E+02  d E =-.197620E-01
       N       E                     dE             d eps       ncg     rms          rms(c)
DAV:   1    -0.876753659163E+02    0.39216E-03   -0.12911E-01  4696   0.318E-01    0.105E-01
DAV:   2    -0.876755423555E+02   -0.17644E-03   -0.15777E-03  4768   0.466E-02    0.666E-02
DAV:   3    -0.876755897500E+02   -0.47395E-04   -0.12169E-04  5080   0.445E-02    0.243E-02
DAV:   4    -0.876756185962E+02   -0.28846E-04   -0.34027E-04  5280   0.113E-01    0.309E-02
DAV:   5    -0.876755887764E+02    0.29820E-04   -0.15361E-04  4720   0.840E-02    0.525E-03
DAV:   6    -0.876755900862E+02   -0.13099E-05   -0.83309E-06  3824   0.135E-02
   2 F= -.90707639E+02 E0= -.90701055E+02  d E =-.197518E-01
       N       E                     dE             d eps       ncg     rms          rms(c)
DAV:   1    -0.876747073943E+02    0.88138E-03   -0.51554E-01  5008   0.636E-01    0.209E-01
DAV:   2    -0.876754091883E+02   -0.70179E-03   -0.62468E-03  4992   0.901E-02    0.133E-01
DAV:   3    -0.876755684232E+02   -0.15923E-03   -0.34523E-04  5304   0.595E-02    0.405E-02
DAV:   4    -0.876756614159E+02   -0.92993E-04   -0.82768E-04  5416   0.170E-01    0.525E-02
DAV:   5    -0.876755752958E+02    0.86120E-04   -0.44933E-04  5144   0.139E-01    0.868E-03
DAV:   6    -0.876755795800E+02   -0.42842E-05   -0.23709E-05  4512   0.234E-02
   3 F= -.90707628E+02 E0= -.90701047E+02  d E =-.197443E-01
       N       E                     dE             d eps       ncg     rms          rms(c)
DAV:   1    -0.876751347599E+02    0.44054E-03   -0.25782E-01  4712   0.453E-01    0.149E-01
DAV:   2    -0.876754959924E+02   -0.36123E-03   -0.32602E-03  4768   0.694E-02    0.939E-02
DAV:   3    -0.876755898254E+02   -0.93833E-04   -0.22834E-04  5296   0.654E-02    0.335E-02
DAV:   4    -0.876756506920E+02   -0.60867E-04   -0.68206E-04  5304   0.166E-01    0.441E-02
DAV:   5    -0.876755861430E+02    0.64549E-04   -0.31439E-04  4968   0.120E-01    0.596E-03
DAV:   6    -0.876755887104E+02   -0.25674E-05   -0.13340E-05  4272   0.148E-02
   4 F= -.90707637E+02 E0= -.90701055E+02  d E =-.197469E-01
       N       E                     dE             d eps       ncg     rms          rms(c)
DAV:   1    -0.876746932142E+02    0.89293E-03   -0.51519E-01  4912   0.637E-01    0.210E-01
DAV:   2    -0.876754237966E+02   -0.73058E-03   -0.63737E-03  4936   0.914E-02    0.133E-01
DAV:   3    -0.876755697974E+02   -0.14600E-03   -0.36071E-04  5312   0.652E-02    0.433E-02
DAV:   4    -0.876756755511E+02   -0.10575E-03   -0.96383E-04  5408   0.187E-01    0.563E-02
DAV:   5    -0.876755747425E+02    0.10081E-03   -0.51591E-04  5168   0.149E-01    0.868E-03
DAV:   6    -0.876755795431E+02   -0.48006E-05   -0.24868E-05  4536   0.231E-02
   5 F= -.90707628E+02 E0= -.90701047E+02  d E =-.197429E-01
       N       E                     dE             d eps       ncg     rms          rms(c)
DAV:   1    -0.876686964242E+02    0.68783E-02   -0.29350E-01  4856   0.465E-01    0.352E-01
DAV:   2    -0.876718095388E+02   -0.31131E-02   -0.58357E-02  5872   0.623E-01    0.449E-01
DAV:   3    -0.876674780853E+02    0.43315E-02   -0.29471E-02  5952   0.910E-01    0.164E-01
DAV:   4    -0.876674058122E+02    0.72273E-04   -0.50822E-03  5496   0.508E-01    0.104E-01
DAV:   5    -0.876673672998E+02    0.38512E-04   -0.74902E-04  4960   0.151E-01    0.317E-02
DAV:   6    -0.876673685179E+02   -0.12181E-05   -0.10318E-04  5064   0.567E-02    0.126E-02
DAV:   7    -0.876673696062E+02   -0.10883E-05   -0.11357E-05  4160   0.235E-02
   6 F= -.90699422E+02 E0= -.90692834E+02  d E =-.197651E-01
       N       E                     dE             d eps       ncg     rms          rms(c)
DAV:   1    -0.876742829315E+02   -0.69144E-02   -0.68669E-01  5216   0.691E-01    0.659E-01
DAV:   2    -0.876847515610E+02   -0.10469E-01   -0.20503E-01  6192   0.113E+00    0.951E-01
DAV:   3    -0.876682735735E+02    0.16478E-01   -0.14496E-01  5968   0.162E+00    0.317E-01
DAV:   4    -0.876680796036E+02    0.19397E-03   -0.18266E-02  5576   0.926E-01    0.198E-01
DAV:   5    -0.876678699394E+02    0.20966E-03   -0.32082E-03  5184   0.326E-01    0.661E-02
DAV:   6    -0.876678485025E+02    0.21437E-04   -0.41610E-04  5408   0.113E-01    0.330E-02
DAV:   7    -0.876678495085E+02   -0.10060E-05   -0.73290E-05  5200   0.477E-02
   7 F= -.90699889E+02 E0= -.90693300E+02  d E =-.197673E-01
       N       E                     dE             d eps       ncg     rms          rms(c)
DAV:   1    -0.876759520941E+02   -0.81036E-02   -0.17651E+00  5440   0.164E+00    0.427E-01
DAV:   2    -0.876800800284E+02   -0.41279E-02   -0.72506E-02  6288   0.701E-01    0.465E-01
DAV:   3    -0.876759580666E+02    0.41220E-02   -0.34457E-02  6800   0.103E+00    0.234E-01
DAV:   4    -0.876756565936E+02    0.30147E-03   -0.76754E-03  5992   0.639E-01    0.153E-01
DAV:   5    -0.876754733931E+02    0.18320E-03   -0.18707E-03  6560   0.245E-01    0.479E-02
DAV:   6    -0.876754698251E+02    0.35681E-05   -0.31637E-04  5944   0.926E-02    0.222E-02
DAV:   7    -0.876754698564E+02   -0.31345E-07   -0.38557E-05  4976   0.405E-02
   8 F= -.90707510E+02 E0= -.90700928E+02  d E =-.197455E-01
       N       E                     dE             d eps       ncg     rms          rms(c)
DAV:   1    -0.876719231468E+02    0.35467E-02   -0.63426E+00  5440   0.308E+00    0.512E-01
DAV:   2    -0.876763555810E+02   -0.44324E-02   -0.57952E-02  5896   0.335E-01    0.359E-01
DAV:   3    -0.876760061488E+02    0.34943E-03   -0.76214E-03  6408   0.153E-01    0.247E-01
DAV:   4    -0.876764345458E+02   -0.42840E-03   -0.13179E-02  6216   0.535E-01    0.201E-01
DAV:   5    -0.876757852144E+02    0.64933E-03   -0.98050E-03  5440   0.713E-01    0.939E-02
DAV:   6    -0.876754597687E+02    0.32545E-03   -0.19792E-03  5136   0.334E-01    0.318E-02
DAV:   7    -0.876754646500E+02   -0.48813E-05   -0.12557E-04  5400   0.398E-02    0.195E-02
DAV:   8    -0.876754673967E+02   -0.27466E-05   -0.24847E-05  4600   0.213E-02
   9 F= -.90707507E+02 E0= -.90700930E+02  d E =-.197315E-01
       N       E                     dE             d eps       ncg     rms          rms(c)
DAV:   1    -0.876738185546E+02    0.16461E-02   -0.31788E+00  5408   0.218E+00    0.354E-01
DAV:   2    -0.876758631300E+02   -0.20446E-02   -0.27087E-02  5784   0.232E-01    0.250E-01
DAV:   3    -0.876756840153E+02    0.17911E-03   -0.31284E-03  5912   0.109E-01    0.161E-01
DAV:   4    -0.876760305067E+02   -0.34649E-03   -0.66765E-03  5832   0.391E-01    0.148E-01
DAV:   5    -0.876755705082E+02    0.46000E-03   -0.46815E-03  5328   0.475E-01    0.575E-02
DAV:   6    -0.876754694923E+02    0.10102E-03   -0.76869E-04  4968   0.192E-01    0.219E-02
DAV:   7    -0.876754716422E+02   -0.21498E-05   -0.52174E-05  5040   0.266E-02
  10 F= -.90707511E+02 E0= -.90700932E+02  d E =-.197395E-01
       N       E                     dE             d eps       ncg     rms          rms(c)
DAV:   1    -0.876719336630E+02    0.35358E-02   -0.63386E+00  5424   0.308E+00    0.510E-01
DAV:   2    -0.876763597675E+02   -0.44261E-02   -0.57764E-02  5888   0.338E-01    0.359E-01
DAV:   3    -0.876760066533E+02    0.35311E-03   -0.75611E-03  6336   0.148E-01    0.246E-01
DAV:   4    -0.876764165284E+02   -0.40988E-03   -0.12932E-02  6208   0.527E-01    0.199E-01
DAV:   5    -0.876758036560E+02    0.61287E-03   -0.98561E-03  5464   0.717E-01    0.952E-02
DAV:   6    -0.876754627644E+02    0.34089E-03   -0.20070E-03  5128   0.336E-01    0.313E-02
DAV:   7    -0.876754677256E+02   -0.49612E-05   -0.12000E-04  5384   0.394E-02    0.191E-02
DAV:   8    -0.876754704118E+02   -0.26861E-05   -0.24024E-05  4656   0.209E-02
  11 F= -.90707510E+02 E0= -.90700933E+02  d E =-.197315E-01
       N       E                     dE             d eps       ncg     rms          rms(c)
DAV:   1    -0.876640552290E+02    0.11412E-01   -0.32674E+00  5424   0.225E+00    0.151E+00
DAV:   2    -0.876654639908E+02   -0.14088E-02   -0.41783E-02  6392   0.350E-01    0.943E-01
DAV:   3    -0.876814558667E+02   -0.15992E-01   -0.13471E-01  7192   0.150E+00    0.781E-01
DAV:   4    -0.876653161520E+02    0.16140E-01   -0.11449E-01  7176   0.204E+00    0.211E-01
DAV:   5    -0.876643991115E+02    0.91704E-03   -0.18090E-02  6448   0.980E-01    0.158E-01
DAV:   6    -0.876642432334E+02    0.15588E-03   -0.10830E-03  6592   0.130E-01    0.125E-01
DAV:   7    -0.876642479381E+02   -0.47047E-05   -0.11962E-04  6712   0.394E-02    0.990E-02
DAV:   8    -0.876642238490E+02    0.24089E-04   -0.10865E-04  4928   0.436E-02    0.336E-02
DAV:   9    -0.876642270668E+02   -0.32178E-05   -0.42418E-05  5456   0.336E-02
  12 F= -.90695638E+02 E0= -.90689312E+02  d E =-.189778E-01
       N       E                     dE             d eps       ncg     rms          rms(c)
DAV:   1    -0.876651740253E+02   -0.95018E-03   -0.66571E+00  5440   0.314E+00    0.322E+00
DAV:   2    -0.876664303199E+02   -0.12563E-02   -0.12003E-01  6392   0.527E-01    0.184E+00
DAV:   3    -0.876977708544E+02   -0.31341E-01   -0.27250E-01  8424   0.179E+00    0.129E+00
DAV:   4    -0.876703375932E+02    0.27433E-01   -0.43045E-01  8024   0.313E+00    0.493E-01
DAV:   5    -0.876641122746E+02    0.62253E-02   -0.71628E-02  7272   0.176E+00    0.357E-01
DAV:   6    -0.876626154234E+02    0.14969E-02   -0.64840E-03  7600   0.392E-01    0.227E-01
DAV:   7    -0.876627081139E+02   -0.92691E-04   -0.11324E-03  6728   0.981E-02    0.127E-01
DAV:   8    -0.876626946828E+02    0.13431E-04   -0.30844E-04  6856   0.997E-02    0.262E-02
DAV:   9    -0.876626949512E+02   -0.26844E-06   -0.54953E-05  5224   0.691E-02
  13 F= -.90695375E+02 E0= -.90688570E+02  d E =-.204141E-01
