       N       E                     dE             d eps       ncg     rms          rms(c)
DAV:   1     0.283423296733E+04    0.28342E+04   -0.88421E+04  7056   0.225E+03
DAV:   2     0.567012071093E+03   -0.22672E+04   -0.21700E+04  5624   0.744E+02
DAV:   3    -0.149196913147E+02   -0.58193E+03   -0.55506E+03  6608   0.263E+02
DAV:   4    -0.965895375464E+02   -0.81670E+02   -0.80215E+02  7912   0.102E+02
DAV:   5    -0.102543022838E+03   -0.59535E+01   -0.58888E+01  8488   0.268E+01    0.334E+01
DAV:   6    -0.983831978132E+02    0.41598E+01   -0.57437E+01  8096   0.243E+01    0.338E+01
DAV:   7    -0.100293934868E+03   -0.19107E+01   -0.17263E+02  7336   0.329E+01    0.232E+01
DAV:   8    -0.998246890931E+02    0.46925E+00   -0.40887E+01  7848   0.226E+01    0.193E+01
DAV:   9    -0.967048437820E+02    0.31198E+01   -0.24078E+01  7048   0.124E+01    0.114E+01
DAV:  10    -0.926076825931E+02    0.40972E+01   -0.93610E+00  7712   0.784E+00    0.571E+00
DAV:  11    -0.921505744689E+02    0.45711E+00   -0.26453E+00  7640   0.641E+00    0.227E+00
DAV:  12    -0.921636782097E+02   -0.13104E-01   -0.25773E-01  7232   0.163E+00    0.191E+00
DAV:  13    -0.921601568411E+02    0.35214E-02   -0.18457E-02  8376   0.797E-01    0.181E+00
DAV:  14    -0.921561844069E+02    0.39724E-02   -0.82780E-02  7272   0.153E+00    0.165E+00
DAV:  15    -0.921434897903E+02    0.12695E-01   -0.43510E-02  7432   0.879E-01    0.144E+00
DAV:  16    -0.921388791728E+02    0.46106E-02   -0.66490E-03  7312   0.507E-01    0.122E+00
DAV:  17    -0.921372819233E+02    0.15972E-02   -0.19660E-03  7312   0.294E-01    0.107E+00
DAV:  18    -0.921319931201E+02    0.52888E-02   -0.66307E-03  7272   0.491E-01    0.605E-01
DAV:  19    -0.921309386235E+02    0.10545E-02   -0.30989E-03  7504   0.287E-01    0.387E-01
DAV:  20    -0.921311108520E+02   -0.17223E-03   -0.45013E-04  7120   0.124E-01    0.319E-01
DAV:  21    -0.921313274869E+02   -0.21663E-03   -0.61692E-04  6496   0.209E-01    0.153E-01
DAV:  22    -0.921314789484E+02   -0.15146E-03   -0.98421E-04  7672   0.160E-01    0.294E-02
DAV:  23    -0.921317288645E+02   -0.24992E-03   -0.18758E-04  6536   0.767E-02    0.258E-02
DAV:  24    -0.921320529584E+02   -0.32409E-03   -0.71215E-05  5552   0.377E-02    0.404E-02
DAV:  25    -0.921322364622E+02   -0.18350E-03   -0.15933E-05  4792   0.305E-02    0.409E-02
DAV:  26    -0.921324445298E+02   -0.20807E-03   -0.11368E-05  4472   0.224E-02    0.275E-02
DAV:  27    -0.921325257919E+02   -0.81262E-04   -0.78880E-06  4352   0.168E-02    0.177E-02
DAV:  28    -0.921325554160E+02   -0.29624E-04   -0.54085E-06  3872   0.120E-02    0.940E-03
DAV:  29    -0.921325667104E+02   -0.11294E-04   -0.23214E-06  3624   0.912E-03    0.511E-03
DAV:  30    -0.921325691930E+02   -0.24826E-05   -0.15929E-06  3344   0.596E-03
   1 F= -.95041333E+02 E0= -.95046337E+02  d E =0.150123E-01
       N       E                     dE             d eps       ncg     rms          rms(c)
DAV:   1    -0.921284598450E+02    0.41069E-02   -0.14908E-01  4736   0.345E-01    0.199E-01
DAV:   2    -0.921280531596E+02    0.40669E-03   -0.53560E-03  5824   0.105E-01    0.106E-01
DAV:   3    -0.921280557370E+02   -0.25774E-05   -0.53485E-04  5824   0.725E-02    0.778E-02
DAV:   4    -0.921281546905E+02   -0.98953E-04   -0.72224E-04  6144   0.930E-02    0.100E-01
DAV:   5    -0.921280821124E+02    0.72578E-04   -0.66576E-04  5896   0.590E-02    0.484E-02
DAV:   6    -0.921280298330E+02    0.52279E-04   -0.35818E-04  5984   0.801E-02    0.142E-02
DAV:   7    -0.921280243416E+02    0.54914E-05   -0.30896E-05  4960   0.226E-02
   2 F= -.95036682E+02 E0= -.95041684E+02  d E =0.150053E-01
       N       E                     dE             d eps       ncg     rms          rms(c)
DAV:   1    -0.921288641758E+02   -0.83434E-03   -0.58445E-01  4832   0.678E-01    0.394E-01
DAV:   2    -0.921272798886E+02    0.15843E-02   -0.22073E-02  5992   0.215E-01    0.210E-01
DAV:   3    -0.921272939134E+02   -0.14025E-04   -0.22748E-03  6128   0.154E-01    0.156E-01
DAV:   4    -0.921275995803E+02   -0.30567E-03   -0.27472E-03  6480   0.203E-01    0.181E-01
DAV:   5    -0.921273885967E+02    0.21098E-03   -0.22618E-03  6392   0.104E-01    0.104E-01
DAV:   6    -0.921271821372E+02    0.20646E-03   -0.14042E-03  6280   0.146E-01    0.322E-02
DAV:   7    -0.921271551689E+02    0.26968E-04   -0.14841E-04  6080   0.482E-02    0.134E-02
DAV:   8    -0.921271551156E+02    0.53344E-07   -0.22168E-05  5208   0.161E-02
   3 F= -.95036030E+02 E0= -.95041036E+02  d E =0.150169E-01
       N       E                     dE             d eps       ncg     rms          rms(c)
DAV:   1    -0.921332647226E+02   -0.61096E-02   -0.29671E-01  4680   0.487E-01    0.280E-01
DAV:   2    -0.921324366348E+02    0.82809E-03   -0.10905E-02  5776   0.148E-01    0.150E-01
DAV:   3    -0.921324371251E+02   -0.49031E-06   -0.11215E-03  5952   0.101E-01    0.111E-01
DAV:   4    -0.921326399355E+02   -0.20281E-03   -0.14201E-03  6224   0.129E-01    0.143E-01
DAV:   5    -0.921324885965E+02    0.15134E-03   -0.13575E-03  6264   0.836E-02    0.693E-02
DAV:   6    -0.921323869547E+02    0.10164E-03   -0.74299E-04  6232   0.113E-01    0.217E-02
DAV:   7    -0.921323729711E+02    0.13984E-04   -0.74709E-05  5552   0.344E-02    0.863E-03
DAV:   8    -0.921323733199E+02   -0.34881E-06   -0.10388E-05  4312   0.109E-02
   4 F= -.95041076E+02 E0= -.95046084E+02  d E =0.150253E-01
       N       E                     dE             d eps       ncg     rms          rms(c)
DAV:   1    -0.921299854462E+02    0.23875E-02   -0.52394E-01  4680   0.665E-01    0.263E-01
DAV:   2    -0.921303228176E+02   -0.33737E-03   -0.10898E-02  6040   0.138E-01    0.150E-01
DAV:   3    -0.921304284440E+02   -0.10563E-03   -0.73125E-04  5872   0.685E-02    0.962E-02
DAV:   4    -0.921308197799E+02   -0.39134E-03   -0.15297E-03  6336   0.120E-01    0.163E-01
DAV:   5    -0.921304991449E+02    0.32064E-03   -0.12082E-03  6088   0.756E-02    0.388E-02
DAV:   6    -0.921304648695E+02    0.34275E-04   -0.31442E-04  5496   0.732E-02    0.153E-02
DAV:   7    -0.921304626630E+02    0.22066E-05   -0.42790E-05  5248   0.255E-02
   5 F= -.95039291E+02 E0= -.95044293E+02  d E =0.150075E-01
       N       E                     dE             d eps       ncg     rms          rms(c)
DAV:   1    -0.921291886566E+02    0.12762E-02   -0.25815E-01  4504   0.456E-01    0.150E-01
DAV:   2    -0.921294750209E+02   -0.28636E-03   -0.29563E-03  5872   0.735E-02    0.889E-02
DAV:   3    -0.921295650879E+02   -0.90067E-04   -0.25929E-04  6032   0.456E-02    0.526E-02
DAV:   4    -0.921296551336E+02   -0.90046E-04   -0.54750E-04  6256   0.631E-02    0.856E-02
DAV:   5    -0.921295724592E+02    0.82674E-04   -0.32097E-04  5512   0.462E-02    0.218E-02
DAV:   6    -0.921295607836E+02    0.11676E-04   -0.67311E-05  4656   0.344E-02    0.997E-03
DAV:   7    -0.921295625799E+02   -0.17963E-05   -0.64522E-06  3824   0.101E-02
   6 F= -.95038310E+02 E0= -.95043319E+02  d E =0.150249E-01
       N       E                     dE             d eps       ncg     rms          rms(c)
DAV:   1    -0.921303044581E+02   -0.74367E-03   -0.56702E-01  4736   0.644E-01    0.332E-01
DAV:   2    -0.921296377342E+02    0.66672E-03   -0.12750E-02  6208   0.147E-01    0.177E-01
DAV:   3    -0.921296956910E+02   -0.57957E-04   -0.11770E-03  5896   0.112E-01    0.120E-01
DAV:   4    -0.921301475332E+02   -0.45184E-03   -0.23623E-03  6216   0.153E-01    0.194E-01
DAV:   5    -0.921297805097E+02    0.36702E-03   -0.18808E-03  6088   0.105E-01    0.622E-02
DAV:   6    -0.921296692691E+02    0.11124E-03   -0.57466E-04  6040   0.102E-01    0.228E-02
DAV:   7    -0.921296725263E+02   -0.32572E-05   -0.41283E-05  5448   0.212E-02
   7 F= -.95038458E+02 E0= -.95043452E+02  d E =0.149825E-01
       N       E                     dE             d eps       ncg     rms          rms(c)
DAV:   1    -0.921291792066E+02    0.49006E-03   -0.29701E-01  4504   0.475E-01    0.276E-01
DAV:   2    -0.921279697712E+02    0.12094E-02   -0.82489E-03  5944   0.153E-01    0.136E-01
DAV:   3    -0.921280854703E+02   -0.11570E-03   -0.13440E-03  5864   0.125E-01    0.110E-01
DAV:   4    -0.921281339859E+02   -0.48516E-04   -0.11580E-03  6248   0.123E-01    0.114E-01
DAV:   5    -0.921281652798E+02   -0.31294E-04   -0.12045E-03  6152   0.106E-01    0.778E-02
DAV:   6    -0.921280101652E+02    0.15511E-03   -0.76798E-04  6280   0.114E-01    0.235E-02
DAV:   7    -0.921280032334E+02    0.69318E-05   -0.36215E-05  5360   0.215E-02
   8 F= -.95036871E+02 E0= -.95041877E+02  d E =0.150166E-01
       N       E                     dE             d eps       ncg     rms          rms(c)
DAV:   1    -0.921294146819E+02   -0.14045E-02   -0.58585E-01  4768   0.680E-01    0.375E-01
DAV:   2    -0.921280797864E+02    0.13349E-02   -0.19220E-02  5936   0.205E-01    0.200E-01
DAV:   3    -0.921281013987E+02   -0.21612E-04   -0.20985E-03  6168   0.162E-01    0.145E-01
DAV:   4    -0.921283058905E+02   -0.20449E-03   -0.24802E-03  6376   0.208E-01    0.148E-01
DAV:   5    -0.921281366159E+02    0.16927E-03   -0.16684E-03  6344   0.115E-01    0.943E-02
DAV:   6    -0.921280182201E+02    0.11840E-03   -0.10415E-03  6256   0.121E-01    0.363E-02
DAV:   7    -0.921279822486E+02    0.35971E-04   -0.18549E-04  6048   0.525E-02    0.125E-02
DAV:   8    -0.921279819706E+02    0.27804E-06   -0.18678E-05  5112   0.159E-02
   9 F= -.95036646E+02 E0= -.95041652E+02  d E =0.150190E-01
       N       E                     dE             d eps       ncg     rms          rms(c)
DAV:   1    -0.921318228546E+02   -0.38406E-02   -0.29238E-01  4632   0.475E-01    0.271E-01
DAV:   2    -0.921311053140E+02    0.71754E-03   -0.10298E-02  5896   0.141E-01    0.146E-01
DAV:   3    -0.921311198416E+02   -0.14528E-04   -0.10591E-03  5960   0.948E-02    0.110E-01
DAV:   4    -0.921313112155E+02   -0.19137E-03   -0.13770E-03  6240   0.122E-01    0.143E-01
DAV:   5    -0.921311652307E+02    0.14598E-03   -0.13045E-03  6184   0.912E-02    0.635E-02
DAV:   6    -0.921310737200E+02    0.91511E-04   -0.76364E-04  6240   0.114E-01    0.216E-02
DAV:   7    -0.921310582064E+02    0.15514E-04   -0.78032E-05  5504   0.369E-02    0.835E-03
DAV:   8    -0.921310586887E+02   -0.48233E-06   -0.94162E-06  4288   0.110E-02
  10 F= -.95039866E+02 E0= -.95044868E+02  d E =0.150061E-01
       N       E                     dE             d eps       ncg     rms          rms(c)
DAV:   1    -0.921316262678E+02   -0.56806E-03   -0.52485E-01  4656   0.664E-01    0.248E-01
DAV:   2    -0.921320300655E+02   -0.40380E-03   -0.91688E-03  5880   0.125E-01    0.145E-01
DAV:   3    -0.921321454647E+02   -0.11540E-03   -0.59760E-04  5896   0.569E-02    0.883E-02
DAV:   4    -0.921325496663E+02   -0.40420E-03   -0.14850E-03  6368   0.955E-02    0.168E-01
DAV:   5    -0.921321991879E+02    0.35048E-03   -0.12518E-03  6112   0.831E-02    0.278E-02
DAV:   6    -0.921321814656E+02    0.17722E-04   -0.22696E-04  5416   0.662E-02    0.124E-02
DAV:   7    -0.921321807423E+02    0.72322E-06   -0.31857E-05  4968   0.225E-02
  11 F= -.95040904E+02 E0= -.95045908E+02  d E =0.150126E-01
       N       E                     dE             d eps       ncg     rms          rms(c)
DAV:   1    -0.921290657617E+02    0.31157E-02   -0.28378E-01  4640   0.470E-01    0.258E-01
DAV:   2    -0.921286404370E+02    0.42532E-03   -0.92504E-03  5952   0.128E-01    0.139E-01
DAV:   3    -0.921286553534E+02   -0.14916E-04   -0.81590E-04  5872   0.815E-02    0.947E-02
DAV:   4    -0.921289222944E+02   -0.26694E-03   -0.13228E-03  6224   0.130E-01    0.144E-01
DAV:   5    -0.921286941379E+02    0.22816E-03   -0.10489E-03  6352   0.713E-02    0.499E-02
DAV:   6    -0.921286363516E+02    0.57786E-04   -0.35846E-04  5760   0.774E-02    0.187E-02
DAV:   7    -0.921286339648E+02    0.23868E-05   -0.41551E-05  5320   0.247E-02
  12 F= -.95037404E+02 E0= -.95042411E+02  d E =0.150219E-01
       N       E                     dE             d eps       ncg     rms          rms(c)
DAV:   1    -0.921302827472E+02   -0.16464E-02   -0.57959E-01  4792   0.648E-01    0.363E-01
DAV:   2    -0.921292694536E+02    0.10133E-02   -0.15000E-02  6176   0.167E-01    0.189E-01
DAV:   3    -0.921292951777E+02   -0.25724E-04   -0.14558E-03  6008   0.133E-01    0.129E-01
DAV:   4    -0.921297109153E+02   -0.41574E-03   -0.25291E-03  6072   0.179E-01    0.189E-01
DAV:   5    -0.921293820132E+02    0.32890E-03   -0.19643E-03  6344   0.998E-02    0.754E-02
DAV:   6    -0.921292371441E+02    0.14487E-03   -0.71723E-04  5976   0.111E-01    0.257E-02
DAV:   7    -0.921292388868E+02   -0.17428E-05   -0.55367E-05  5528   0.263E-02
  13 F= -.95038000E+02 E0= -.95042999E+02  d E =0.149947E-01
       N       E                     dE             d eps       ncg     rms          rms(c)
DAV:   1    -0.921242628875E+02    0.49743E-02   -0.16178E+00  4912   0.145E+00    0.374E-01
DAV:   2    -0.921240949093E+02    0.16798E-03   -0.18592E-02  5808   0.198E-01    0.217E-01
DAV:   3    -0.921238540686E+02    0.24084E-03   -0.19518E-03  6136   0.114E-01    0.125E-01
DAV:   4    -0.921244726265E+02   -0.61856E-03   -0.31598E-03  6056   0.198E-01    0.211E-01
DAV:   5    -0.921238980684E+02    0.57456E-03   -0.20151E-03  6448   0.111E-01    0.547E-02
DAV:   6    -0.921238354342E+02    0.62634E-04   -0.48889E-04  5992   0.886E-02    0.230E-02
DAV:   7    -0.921238356567E+02   -0.22254E-06   -0.72695E-05  5504   0.314E-02
  14 F= -.95032602E+02 E0= -.95037618E+02  d E =0.150496E-01
       N       E                     dE             d eps       ncg     rms          rms(c)
DAV:   1    -0.921259432591E+02   -0.21078E-02   -0.66709E+00  5440   0.288E+00    0.661E-01
DAV:   2    -0.921255332975E+02    0.40996E-03   -0.57850E-02  5656   0.328E-01    0.394E-01
DAV:   3    -0.921236827637E+02    0.18505E-02   -0.75904E-03  5976   0.114E-01    0.171E-01
DAV:   4    -0.921238401654E+02   -0.15740E-03   -0.25534E-03  6144   0.957E-02    0.738E-02
DAV:   5    -0.921239885378E+02   -0.14837E-03   -0.16057E-03  6560   0.127E-01    0.109E-01
DAV:   6    -0.921238102200E+02    0.17832E-03   -0.56550E-04  6136   0.728E-02    0.267E-02
DAV:   7    -0.921238244932E+02   -0.14273E-04   -0.76486E-05  5664   0.364E-02    0.234E-02
DAV:   8    -0.921238166658E+02    0.78274E-05   -0.64548E-05  4656   0.371E-02
  15 F= -.95032582E+02 E0= -.95037576E+02  d E =0.149810E-01
       N       E                     dE             d eps       ncg     rms          rms(c)
DAV:   1    -0.921318460383E+02   -0.80215E-02   -0.33342E+00  5120   0.202E+00    0.477E-01
DAV:   2    -0.921312937961E+02    0.55224E-03   -0.28159E-02  5592   0.229E-01    0.281E-01
DAV:   3    -0.921303940735E+02    0.89972E-03   -0.39488E-03  5920   0.834E-02    0.115E-01
DAV:   4    -0.921304938940E+02   -0.99820E-04   -0.11845E-03  5856   0.650E-02    0.609E-02
DAV:   5    -0.921305083593E+02   -0.14465E-04   -0.52381E-04  6392   0.560E-02    0.620E-02
DAV:   6    -0.921304742534E+02    0.34106E-04   -0.21844E-04  5864   0.449E-02    0.229E-02
DAV:   7    -0.921304672363E+02    0.70171E-05   -0.88841E-05  4664   0.408E-02
  16 F= -.95039225E+02 E0= -.95044223E+02  d E =0.149935E-01
       N       E                     dE             d eps       ncg     rms          rms(c)
DAV:   1    -0.921293126203E+02    0.11616E-02   -0.67640E+00  5424   0.307E+00    0.451E-01
DAV:   2    -0.921315059715E+02   -0.21934E-02   -0.49893E-02  5592   0.320E-01    0.307E-01
DAV:   3    -0.921304954330E+02    0.10105E-02   -0.38330E-03  6600   0.990E-02    0.194E-01
DAV:   4    -0.921307281918E+02   -0.23276E-03   -0.33865E-03  5936   0.133E-01    0.183E-01
DAV:   5    -0.921304144822E+02    0.31371E-03   -0.28159E-03  6448   0.122E-01    0.830E-02
DAV:   6    -0.921303645992E+02    0.49883E-04   -0.83331E-04  6144   0.120E-01    0.375E-02
DAV:   7    -0.921303203615E+02    0.44238E-04   -0.25949E-04  5336   0.765E-02    0.189E-02
DAV:   8    -0.921303235871E+02   -0.32255E-05   -0.29708E-05  4808   0.219E-02
  17 F= -.95039096E+02 E0= -.95044113E+02  d E =0.150516E-01
       N       E                     dE             d eps       ncg     rms          rms(c)
DAV:   1    -0.921241137269E+02    0.62066E-02   -0.33932E+00  5296   0.219E+00    0.967E-01
DAV:   2    -0.921235862388E+02    0.52749E-03   -0.27729E-02  6176   0.261E-01    0.588E-01
DAV:   3    -0.921231378524E+02    0.44839E-03   -0.53959E-03  6232   0.146E-01    0.168E-01
DAV:   4    -0.921256263165E+02   -0.24885E-02   -0.13473E-02  6696   0.299E-01    0.434E-01
DAV:   5    -0.921228849027E+02    0.27414E-02   -0.81444E-03  6912   0.246E-01    0.475E-02
DAV:   6    -0.921229040648E+02   -0.19162E-04   -0.46977E-04  6040   0.922E-02    0.333E-02
DAV:   7    -0.921229055363E+02   -0.14715E-05   -0.23957E-04  5800   0.684E-02    0.195E-02
DAV:   8    -0.921229006863E+02    0.48500E-05   -0.60757E-05  5560   0.332E-02
  18 F= -.95031026E+02 E0= -.95036047E+02  d E =0.150639E-01
       N       E                     dE             d eps       ncg     rms          rms(c)
DAV:   1    -0.921297821882E+02   -0.68767E-02   -0.67520E+00  5568   0.305E+00    0.217E+00
DAV:   2    -0.921248482752E+02    0.49339E-02   -0.80285E-02  6728   0.432E-01    0.117E+00
DAV:   3    -0.921239972186E+02    0.85106E-03   -0.16421E-02  6696   0.260E-01    0.325E-01
DAV:   4    -0.921319778160E+02   -0.79806E-02   -0.43216E-02  6960   0.556E-01    0.738E-01
DAV:   5    -0.921232105633E+02    0.87673E-02   -0.23268E-02  6792   0.472E-01    0.994E-02
DAV:   6    -0.921233379665E+02   -0.12740E-03   -0.17836E-03  6384   0.171E-01    0.749E-02
DAV:   7    -0.921232449601E+02    0.93006E-04   -0.10459E-03  6320   0.147E-01    0.329E-02
DAV:   8    -0.921232197647E+02    0.25195E-04   -0.18880E-04  6256   0.586E-02    0.263E-02
DAV:   9    -0.921232176835E+02    0.20812E-05   -0.26851E-05  5208   0.209E-02
  19 F= -.95032628E+02 E0= -.95037620E+02  d E =0.149763E-01
