       N       E                     dE             d eps       ncg     rms          rms(c)
DAV:   1     0.422693977219E+03    0.42269E+03   -0.12959E+04  2000   0.833E+02
DAV:   2     0.210846675178E+02   -0.40161E+03   -0.38301E+03  2136   0.239E+02
DAV:   3    -0.713417515930E+02   -0.92426E+02   -0.88720E+02  3512   0.123E+02
DAV:   4    -0.833618017905E+02   -0.12020E+02   -0.11607E+02  3672   0.477E+01
DAV:   5    -0.838952363351E+02   -0.53343E+00   -0.52925E+00  3376   0.121E+01    0.186E+01
RMM:   6    -0.773762547417E+02    0.65190E+01   -0.25836E+01  2358   0.292E+01    0.121E+01
RMM:   7    -0.791776748004E+02   -0.18014E+01   -0.19817E+01  2675   0.143E+01    0.909E+00
RMM:   8    -0.760641899107E+02    0.31135E+01   -0.50621E+00  2423   0.113E+01    0.503E+00
RMM:   9    -0.750659379503E+02    0.99825E+00   -0.17365E+00  2508   0.676E+00    0.241E+00
RMM:  10    -0.749986932175E+02    0.67245E-01   -0.97823E-01  2644   0.376E+00    0.147E+00
RMM:  11    -0.749649700928E+02    0.33723E-01   -0.18151E-01  2551   0.191E+00    0.801E-01
RMM:  12    -0.749505762197E+02    0.14394E-01   -0.71574E-02  2459   0.135E+00    0.298E-01
RMM:  13    -0.749504683060E+02    0.10791E-03   -0.32051E-02  2592   0.674E-01    0.182E-01
RMM:  14    -0.749498076914E+02    0.66061E-03   -0.79666E-03  2668   0.355E-01    0.124E-01
RMM:  15    -0.749490965504E+02    0.71114E-03   -0.48711E-03  2581   0.281E-01    0.669E-02
RMM:  16    -0.749491119676E+02   -0.15417E-04   -0.20931E-03  2729   0.161E-01    0.391E-02
RMM:  17    -0.749493516758E+02   -0.23971E-03   -0.63508E-04  2521   0.837E-02    0.264E-02
RMM:  18    -0.749497698906E+02   -0.41821E-03   -0.27336E-04  2267   0.603E-02    0.184E-02
RMM:  19    -0.749500708816E+02   -0.30099E-03   -0.20154E-04  2221   0.556E-02    0.115E-02
RMM:  20    -0.749507268601E+02   -0.65598E-03   -0.86828E-05  1830   0.345E-02    0.789E-03
RMM:  21    -0.749509952971E+02   -0.26844E-03   -0.40647E-05  1620   0.275E-02    0.356E-03
RMM:  22    -0.749512036290E+02   -0.20833E-03   -0.34897E-05  1558   0.213E-02    0.190E-03
RMM:  23    -0.749512824444E+02   -0.78815E-04   -0.16528E-05  1422   0.203E-02    0.195E-03
RMM:  24    -0.749512926478E+02   -0.10203E-04   -0.58483E-06  1298   0.156E-02    0.117E-03
RMM:  25    -0.749512962421E+02   -0.35944E-05   -0.24385E-06  1262   0.108E-02
   1 F= -.78001132E+02 E0= -.78006310E+02  d E =-.780011E+02
       N       E                     dE             d eps       ncg     rms          rms(c)
DAV:   1    -0.750096261282E+02   -0.58333E-01   -0.43635E+01  2336   0.320E+01    0.210E+00
RMM:   2    -0.751563718547E+02   -0.14675E+00   -0.18329E+00  2664   0.695E+00    0.123E+00
RMM:   3    -0.751531266744E+02    0.32452E-02   -0.21435E-01  2528   0.206E+00    0.897E-01
RMM:   4    -0.751193459114E+02    0.33781E-01   -0.36860E-02  2399   0.118E+00    0.591E-01
RMM:   5    -0.751163711161E+02    0.29748E-02   -0.13394E-02  2632   0.450E-01    0.377E-01
RMM:   6    -0.751156398564E+02    0.73126E-03   -0.15431E-02  2679   0.434E-01    0.761E-02
RMM:   7    -0.751157537460E+02   -0.11389E-03   -0.26775E-03  2643   0.237E-01    0.573E-02
RMM:   8    -0.751157290438E+02    0.24702E-04   -0.45913E-04  2585   0.888E-02    0.362E-02
RMM:   9    -0.751157426152E+02   -0.13571E-04   -0.22464E-04  2246   0.617E-02    0.209E-02
RMM:  10    -0.751157569437E+02   -0.14328E-04   -0.45284E-05  1665   0.480E-02    0.117E-02
RMM:  11    -0.751157605049E+02   -0.35612E-05   -0.14033E-05  1375   0.244E-02
   2 F= -.78164198E+02 E0= -.78169525E+02  d E =-.163065E+00
       N       E                     dE             d eps       ncg     rms          rms(c)
DAV:   1    -0.751159072294E+02   -0.15029E-03   -0.16698E-01  2464   0.199E+00    0.109E-01
RMM:   2    -0.751163804209E+02   -0.47319E-03   -0.56850E-03  2679   0.362E-01    0.614E-02
RMM:   3    -0.751164290945E+02   -0.48674E-04   -0.70938E-04  2513   0.112E-01    0.471E-02
RMM:   4    -0.751163214153E+02    0.10768E-03   -0.11756E-04  1985   0.653E-02    0.254E-02
RMM:   5    -0.751163185138E+02    0.29015E-05   -0.40459E-05  1632   0.366E-02
   3 F= -.78164822E+02 E0= -.78170169E+02  d E =-.163690E+00
       N       E                     dE             d eps       ncg     rms          rms(c)
DAV:   1    -0.752511848879E+02   -0.13486E+00   -0.35628E+00  2048   0.926E+00    0.559E-01
RMM:   2    -0.752648775437E+02   -0.13693E-01   -0.15770E-01  2591   0.231E+00    0.305E-01
RMM:   3    -0.752648812915E+02   -0.37478E-05   -0.18151E-02  2486   0.610E-01    0.204E-01
RMM:   4    -0.752654055504E+02   -0.52426E-03   -0.54229E-03  2678   0.364E-01    0.179E-01
RMM:   5    -0.752641347217E+02    0.12708E-02   -0.13724E-03  2586   0.171E-01    0.788E-02
RMM:   6    -0.752640276390E+02    0.10708E-03   -0.71098E-04  2487   0.144E-01    0.354E-02
RMM:   7    -0.752640117637E+02    0.15875E-04   -0.26414E-04  2357   0.775E-02    0.169E-02
RMM:   8    -0.752640177196E+02   -0.59559E-05   -0.60881E-05  1786   0.407E-02
   4 F= -.78310660E+02 E0= -.78315859E+02  d E =-.145838E+00
       N       E                     dE             d eps       ncg     rms          rms(c)
DAV:   1    -0.754039740845E+02   -0.13996E+00   -0.31174E+01  2000   0.273E+01    0.185E+00
RMM:   2    -0.755422094369E+02   -0.13824E+00   -0.15687E+00  2576   0.741E+00    0.961E-01
RMM:   3    -0.755443540173E+02   -0.21446E-02   -0.19697E-01  2471   0.195E+00    0.650E-01
RMM:   4    -0.755519894160E+02   -0.76354E-02   -0.55989E-02  2691   0.113E+00    0.568E-01
RMM:   5    -0.755389406012E+02    0.13049E-01   -0.17512E-02  2663   0.591E-01    0.256E-01
RMM:   6    -0.755372147911E+02    0.17258E-02   -0.51182E-03  2496   0.398E-01    0.130E-01
RMM:   7    -0.755371288482E+02    0.85943E-04   -0.35514E-03  2674   0.235E-01    0.654E-02
RMM:   8    -0.755370937060E+02    0.35142E-04   -0.76304E-04  2539   0.123E-01    0.370E-02
RMM:   9    -0.755371239800E+02   -0.30274E-04   -0.25334E-04  2466   0.721E-02    0.259E-02
RMM:  10    -0.755371483740E+02   -0.24394E-04   -0.74229E-05  1971   0.361E-02    0.781E-03
RMM:  11    -0.755371720799E+02   -0.23706E-04   -0.16950E-05  1369   0.286E-02    0.412E-03
RMM:  12    -0.755371977343E+02   -0.25654E-04   -0.92745E-06  1292   0.189E-02    0.319E-03
RMM:  13    -0.755372389554E+02   -0.41221E-04   -0.11785E-05  1334   0.181E-02    0.257E-03
RMM:  14    -0.755372649556E+02   -0.26000E-04   -0.81516E-06  1343   0.170E-02    0.188E-03
RMM:  15    -0.755372816571E+02   -0.16701E-04   -0.45844E-06  1286   0.128E-02    0.171E-03
RMM:  16    -0.755373019924E+02   -0.20335E-04   -0.84102E-06  1354   0.111E-02    0.977E-04
RMM:  17    -0.755373044641E+02   -0.24717E-05   -0.27277E-06  1240   0.118E-02
   5 F= -.78578336E+02 E0= -.78581026E+02  d E =-.413514E+00
       N       E                     dE             d eps       ncg     rms          rms(c)
DAV:   1    -0.755393931609E+02   -0.20912E-02   -0.62730E+00  2112   0.122E+01    0.759E-01
RMM:   2    -0.755617606281E+02   -0.22367E-01   -0.25934E-01  2549   0.322E+00    0.420E-01
RMM:   3    -0.755626934475E+02   -0.93282E-03   -0.39570E-02  2443   0.875E-01    0.271E-01
RMM:   4    -0.755644222540E+02   -0.17288E-02   -0.11721E-02  2692   0.525E-01    0.244E-01
RMM:   5    -0.755619027689E+02    0.25195E-02   -0.33630E-03  2626   0.265E-01    0.106E-01
RMM:   6    -0.755616008153E+02    0.30195E-03   -0.81538E-04  2432   0.169E-01    0.545E-02
RMM:   7    -0.755616145775E+02   -0.13762E-04   -0.72538E-04  2599   0.102E-01    0.313E-02
RMM:   8    -0.755616035453E+02    0.11032E-04   -0.10895E-04  2081   0.532E-02    0.190E-02
RMM:   9    -0.755616103367E+02   -0.67914E-05   -0.92812E-05  2027   0.441E-02
   6 F= -.78600467E+02 E0= -.78601749E+02  d E =-.435645E+00
       N       E                     dE             d eps       ncg     rms          rms(c)
DAV:   1    -0.755795774087E+02   -0.17974E-01   -0.50264E+00  2256   0.104E+01    0.804E-01
RMM:   2    -0.755988643276E+02   -0.19287E-01   -0.28021E-01  2652   0.276E+00    0.431E-01
RMM:   3    -0.756049054670E+02   -0.60411E-02   -0.44398E-02  2672   0.884E-01    0.426E-01
RMM:   4    -0.755976940760E+02    0.72114E-02   -0.80108E-03  2449   0.501E-01    0.243E-01
RMM:   5    -0.755972722821E+02    0.42179E-03   -0.35518E-03  2634   0.236E-01    0.985E-02
RMM:   6    -0.755972994615E+02   -0.27179E-04   -0.12042E-03  2531   0.189E-01    0.477E-02
RMM:   7    -0.755972298404E+02    0.69621E-04   -0.19707E-04  2125   0.914E-02    0.176E-02
RMM:   8    -0.755972386442E+02   -0.88038E-05   -0.13820E-04  2048   0.404E-02    0.865E-03
RMM:   9    -0.755972409917E+02   -0.23475E-05   -0.25726E-05  1528   0.331E-02
   7 F= -.78637168E+02 E0= -.78637951E+02  d E =-.367009E-01
       N       E                     dE             d eps       ncg     rms          rms(c)
DAV:   1    -0.756068259673E+02   -0.95873E-02   -0.50058E-01  2368   0.330E+00    0.249E-01
RMM:   2    -0.756086538717E+02   -0.18279E-02   -0.27808E-02  2730   0.852E-01    0.141E-01
RMM:   3    -0.756091104014E+02   -0.45653E-03   -0.39219E-03  2666   0.268E-01    0.134E-01
RMM:   4    -0.756084168246E+02    0.69358E-03   -0.72183E-04  2401   0.154E-01    0.781E-02
RMM:   5    -0.756083761088E+02    0.40716E-04   -0.40150E-04  2423   0.823E-02    0.269E-02
RMM:   6    -0.756083807174E+02   -0.46086E-05   -0.13194E-04  2077   0.728E-02    0.137E-02
RMM:   7    -0.756083748442E+02    0.58732E-05   -0.19634E-05  1413   0.339E-02
   8 F= -.78647951E+02 E0= -.78648903E+02  d E =-.474836E-01
       N       E                     dE             d eps       ncg     rms          rms(c)
DAV:   1    -0.756509788660E+02   -0.42598E-01   -0.67059E-01  2000   0.345E+00    0.365E-01
RMM:   2    -0.756563414002E+02   -0.53625E-02   -0.57141E-02  2507   0.154E+00    0.208E-01
RMM:   3    -0.756575609180E+02   -0.12195E-02   -0.13681E-02  2647   0.476E-01    0.221E-01
RMM:   4    -0.756557414404E+02    0.18195E-02   -0.26439E-03  2494   0.261E-01    0.793E-02
RMM:   5    -0.756557454337E+02   -0.39933E-05   -0.11300E-03  2664   0.129E-01    0.467E-02
RMM:   6    -0.756557196076E+02    0.25826E-04   -0.20681E-04  2194   0.824E-02    0.235E-02
RMM:   7    -0.756557180301E+02    0.15775E-05   -0.84213E-05  1896   0.446E-02
   9 F= -.78697714E+02 E0= -.78697532E+02  d E =-.497628E-01
       N       E                     dE             d eps       ncg     rms          rms(c)
DAV:   1    -0.756642773844E+02   -0.85578E-02   -0.71541E-01  2096   0.356E+00    0.380E-01
RMM:   2    -0.756696088202E+02   -0.53314E-02   -0.58587E-02  2469   0.159E+00    0.211E-01
RMM:   3    -0.756712538751E+02   -0.16451E-02   -0.15620E-02  2656   0.507E-01    0.223E-01
RMM:   4    -0.756693000773E+02    0.19538E-02   -0.29062E-03  2505   0.271E-01    0.800E-02
RMM:   5    -0.756693061061E+02   -0.60289E-05   -0.12312E-03  2689   0.134E-01    0.476E-02
RMM:   6    -0.756692787296E+02    0.27377E-04   -0.23314E-04  2231   0.797E-02    0.247E-02
RMM:   7    -0.756692841360E+02   -0.54064E-05   -0.91079E-05  1958   0.470E-02
  10 F= -.78713927E+02 E0= -.78712558E+02  d E =-.659760E-01
       N       E                     dE             d eps       ncg     rms          rms(c)
DAV:   1    -0.756694354895E+02   -0.15676E-03   -0.14652E-03  2784   0.166E-01    0.179E-02
RMM:   2    -0.756694515282E+02   -0.16039E-04   -0.13382E-04  2151   0.669E-02    0.985E-03
RMM:   3    -0.756694545706E+02   -0.30424E-05   -0.17561E-05  1306   0.285E-02
  11 F= -.78713976E+02 E0= -.78712648E+02  d E =-.660254E-01
       N       E                     dE             d eps       ncg     rms          rms(c)
DAV:   1    -0.756750857055E+02   -0.56342E-02   -0.14638E-01  2192   0.184E+00    0.115E-01
RMM:   2    -0.756753812966E+02   -0.29559E-03   -0.42310E-03  2318   0.489E-01    0.604E-02
RMM:   3    -0.756755013697E+02   -0.12007E-03   -0.15049E-03  2557   0.170E-01    0.334E-02
RMM:   4    -0.756755288771E+02   -0.27507E-04   -0.26450E-04  2363   0.801E-02    0.273E-02
RMM:   5    -0.756755078509E+02    0.21026E-04   -0.55024E-05  1732   0.394E-02    0.168E-02
RMM:   6    -0.756755044191E+02    0.34318E-05   -0.22373E-05  1428   0.380E-02
  12 F= -.78719875E+02 E0= -.78718187E+02  d E =-.589901E-02
       N       E                     dE             d eps       ncg     rms          rms(c)
DAV:   1    -0.756814573831E+02   -0.59495E-02   -0.13145E+00  2000   0.550E+00    0.350E-01
RMM:   2    -0.756841734321E+02   -0.27160E-02   -0.39647E-02  2319   0.150E+00    0.191E-01
RMM:   3    -0.756852243707E+02   -0.10509E-02   -0.13987E-02  2582   0.519E-01    0.108E-01
RMM:   4    -0.756853463779E+02   -0.12201E-03   -0.23013E-03  2577   0.215E-01    0.754E-02
RMM:   5    -0.756853309384E+02    0.15439E-04   -0.63988E-04  2529   0.115E-01    0.571E-02
RMM:   6    -0.756851996797E+02    0.13126E-03   -0.22934E-04  2259   0.869E-02    0.172E-02
RMM:   7    -0.756852004225E+02   -0.74282E-06   -0.81063E-05  1854   0.469E-02
  13 F= -.78729164E+02 E0= -.78726415E+02  d E =-.151877E-01
       N       E                     dE             d eps       ncg     rms          rms(c)
DAV:   1    -0.756881060009E+02   -0.29063E-02   -0.28575E-01  2400   0.260E+00    0.134E-01
RMM:   2    -0.756887929019E+02   -0.68690E-03   -0.85528E-03  2507   0.534E-01    0.614E-02
RMM:   3    -0.756889946279E+02   -0.20173E-03   -0.15875E-03  2581   0.170E-01    0.629E-02
RMM:   4    -0.756888058139E+02    0.18881E-03   -0.27772E-04  2296   0.930E-02    0.345E-02
RMM:   5    -0.756887976500E+02    0.81639E-05   -0.10359E-04  2045   0.486E-02    0.177E-02
RMM:   6    -0.756887970559E+02    0.59409E-06   -0.49641E-05  1701   0.458E-02
  14 F= -.78732664E+02 E0= -.78729679E+02  d E =-.349988E-02
       N       E                     dE             d eps       ncg     rms          rms(c)
DAV:   1    -0.756891412407E+02   -0.34359E-03   -0.53162E-01  2032   0.354E+00    0.185E-01
RMM:   2    -0.756903744138E+02   -0.12332E-02   -0.15817E-02  2526   0.718E-01    0.834E-02
RMM:   3    -0.756907672044E+02   -0.39279E-03   -0.30335E-03  2602   0.231E-01    0.852E-02
RMM:   4    -0.756904223947E+02    0.34481E-03   -0.53037E-04  2422   0.122E-01    0.483E-02
RMM:   5    -0.756904019090E+02    0.20486E-04   -0.19319E-04  2264   0.627E-02    0.249E-02
RMM:   6    -0.756904001618E+02    0.17472E-05   -0.98808E-05  2023   0.559E-02
  15 F= -.78734134E+02 E0= -.78730836E+02  d E =-.496997E-02
       N       E                     dE             d eps       ncg     rms          rms(c)
DAV:   1    -0.756912883254E+02   -0.88642E-03   -0.53911E-02  2432   0.114E+00    0.646E-02
RMM:   2    -0.756914408795E+02   -0.15255E-03   -0.17902E-03  2526   0.260E-01    0.335E-02
RMM:   3    -0.756914483045E+02   -0.74250E-05   -0.24162E-04  2198   0.712E-02    0.197E-02
RMM:   4    -0.756914604648E+02   -0.12160E-04   -0.59116E-05  1710   0.413E-02    0.180E-02
RMM:   5    -0.756914474192E+02    0.13046E-04   -0.19155E-05  1388   0.371E-02    0.862E-03
RMM:   6    -0.756914471916E+02    0.22756E-06   -0.94193E-06  1274   0.252E-02
  16 F= -.78735037E+02 E0= -.78731659E+02  d E =-.902890E-03
       N       E                     dE             d eps       ncg     rms          rms(c)
DAV:   1    -0.756920656075E+02   -0.61819E-03   -0.22874E-01  2048   0.233E+00    0.132E-01
RMM:   2    -0.756925924515E+02   -0.52684E-03   -0.63575E-03  2494   0.509E-01    0.682E-02
RMM:   3    -0.756926377364E+02   -0.45285E-04   -0.11692E-03  2439   0.149E-01    0.388E-02
RMM:   4    -0.756926689930E+02   -0.31257E-04   -0.28363E-04  2351   0.815E-02    0.337E-02
RMM:   5    -0.756926293149E+02    0.39678E-04   -0.81360E-05  1915   0.513E-02    0.182E-02
RMM:   6    -0.756926224467E+02    0.68682E-05   -0.24794E-05  1445   0.390E-02
  17 F= -.78735922E+02 E0= -.78732363E+02  d E =-.178821E-02
       N       E                     dE             d eps       ncg     rms          rms(c)
DAV:   1    -0.756926712467E+02   -0.41932E-04   -0.18207E-02  2400   0.661E-01    0.375E-02
RMM:   2    -0.756927139106E+02   -0.42664E-04   -0.51582E-04  2326   0.164E-01    0.202E-02
RMM:   3    -0.756927249792E+02   -0.11069E-04   -0.14308E-04  1942   0.559E-02    0.123E-02
RMM:   4    -0.756927276268E+02   -0.26476E-05   -0.25648E-05  1446   0.371E-02
  18 F= -.78735946E+02 E0= -.78732322E+02  d E =-.181173E-02
       N       E                     dE             d eps       ncg     rms          rms(c)
DAV:   1    -0.756928598698E+02   -0.13489E-03   -0.25110E-02  2272   0.754E-01    0.483E-02
RMM:   2    -0.756929411722E+02   -0.81302E-04   -0.12122E-03  2721   0.181E-01    0.224E-02
RMM:   3    -0.756929450698E+02   -0.38977E-05   -0.13120E-04  1870   0.503E-02    0.153E-02
RMM:   4    -0.756929442315E+02    0.83833E-06   -0.25186E-05  1419   0.384E-02
  19 F= -.78736278E+02 E0= -.78732717E+02  d E =-.332664E-03
       N       E                     dE             d eps       ncg     rms          rms(c)
DAV:   1    -0.756929406166E+02    0.44533E-05   -0.53262E-05  2920   0.442E-02    0.589E-03
RMM:   2    -0.756929466311E+02   -0.60145E-05   -0.96049E-06  1270   0.201E-02
  20 F= -.78736285E+02 E0= -.78732744E+02  d E =-.339745E-03
       N       E                     dE             d eps       ncg     rms          rms(c)
DAV:   1    -0.756930306434E+02   -0.90027E-04   -0.25809E-03  2064   0.192E-01    0.195E-02
RMM:   2    -0.756930410333E+02   -0.10390E-04   -0.13243E-04  2260   0.760E-02    0.136E-02
RMM:   3    -0.756930384345E+02    0.25988E-05   -0.39732E-05  1575   0.334E-02
  21 F= -.78736574E+02 E0= -.78733055E+02  d E =-.288692E-03
       N       E                     dE             d eps       ncg     rms          rms(c)
DAV:   1    -0.756929497996E+02    0.91234E-04   -0.23638E-02  2000   0.567E-01    0.581E-02
RMM:   2    -0.756930228911E+02   -0.73091E-04   -0.10208E-03  2411   0.230E-01    0.410E-02
RMM:   3    -0.756930127651E+02    0.10126E-04   -0.44960E-04  2381   0.860E-02    0.329E-02
RMM:   4    -0.756929716076E+02    0.41157E-04   -0.56317E-05  1736   0.462E-02    0.133E-02
RMM:   5    -0.756929681525E+02    0.34552E-05   -0.21863E-05  1444   0.295E-02
  22 F= -.78737097E+02 E0= -.78733644E+02  d E =-.811873E-03
       N       E                     dE             d eps       ncg     rms          rms(c)
DAV:   1    -0.756927480864E+02    0.22352E-03   -0.51085E-03  2304   0.265E-01    0.259E-02
RMM:   2    -0.756927669045E+02   -0.18818E-04   -0.27755E-04  2534   0.107E-01    0.167E-02
RMM:   3    -0.756927669951E+02   -0.90646E-07   -0.73242E-05  1747   0.372E-02
  23 F= -.78737173E+02 E0= -.78733774E+02  d E =-.887563E-03
       N       E                     dE             d eps       ncg     rms          rms(c)
DAV:   1    -0.756927990739E+02   -0.32169E-04   -0.28776E-02  2240   0.814E-01    0.469E-02
RMM:   2    -0.756928785191E+02   -0.79445E-04   -0.96899E-04  2552   0.190E-01    0.275E-02
RMM:   3    -0.756928956799E+02   -0.17161E-04   -0.24965E-04  2106   0.752E-02    0.239E-02
RMM:   4    -0.756928707680E+02    0.24912E-04   -0.37960E-05  1504   0.453E-02    0.131E-02
RMM:   5    -0.756928695541E+02    0.12139E-05   -0.13774E-05  1309   0.243E-02
  24 F= -.78737270E+02 E0= -.78733840E+02  d E =-.967398E-04
       N       E                     dE             d eps       ncg     rms          rms(c)
DAV:   1    -0.756928749496E+02   -0.41816E-05   -0.62389E-04  2688   0.122E-01    0.594E-03
RMM:   2    -0.756928767984E+02   -0.18489E-05   -0.20971E-05  1217   0.290E-02
  25 F= -.78737278E+02 E0= -.78733854E+02  d E =-.104773E-03
       N       E                     dE             d eps       ncg     rms          rms(c)
DAV:   1    -0.756929891889E+02   -0.11424E-03   -0.37512E-03  2320   0.293E-01    0.188E-02
RMM:   2    -0.756930006409E+02   -0.11452E-04   -0.13737E-04  2038   0.792E-02    0.889E-03
RMM:   3    -0.756930031074E+02   -0.24665E-05   -0.25462E-05  1271   0.289E-02
  26 F= -.78737384E+02 E0= -.78733943E+02  d E =-.106818E-03
       N       E                     dE             d eps       ncg     rms          rms(c)
DAV:   1    -0.756931072275E+02   -0.10659E-03   -0.10412E-02  2064   0.487E-01    0.331E-02
RMM:   2    -0.756931442902E+02   -0.37063E-04   -0.35808E-04  2474   0.127E-01    0.223E-02
RMM:   3    -0.756931440127E+02    0.27750E-06   -0.82997E-05  1733   0.491E-02
  27 F= -.78737493E+02 E0= -.78734077E+02  d E =-.215790E-03
