       N       E                     dE             d eps       ncg     rms          rms(c)
DAV:   1     0.508003259671E+03    0.50800E+03   -0.14311E+04  2000   0.906E+02
DAV:   2     0.578554208898E+02   -0.45015E+03   -0.43382E+03  2232   0.261E+02
DAV:   3    -0.683553227706E+02   -0.12621E+03   -0.12162E+03  3824   0.143E+02
DAV:   4    -0.845894603835E+02   -0.16234E+02   -0.15956E+02  3344   0.647E+01
DAV:   5    -0.854636998715E+02   -0.87424E+00   -0.82683E+00  3576   0.150E+01    0.190E+01
RMM:   6    -0.776842606060E+02    0.77794E+01   -0.14411E+01  2232   0.275E+01    0.832E+00
RMM:   7    -0.791204112154E+02   -0.14362E+01   -0.31960E+01  2699   0.163E+01    0.515E+00
RMM:   8    -0.779105416211E+02    0.12099E+01   -0.35840E+00  2116   0.156E+01    0.340E+00
RMM:   9    -0.781766698653E+02   -0.26613E+00   -0.28031E+00  2488   0.573E+00    0.265E+00
RMM:  10    -0.779131414436E+02    0.26353E+00   -0.63970E-01  2556   0.437E+00    0.844E-01
RMM:  11    -0.779000467719E+02    0.13095E-01   -0.18542E-01  2683   0.165E+00    0.455E-01
RMM:  12    -0.779001892152E+02   -0.14244E-03   -0.34862E-02  2626   0.857E-01    0.278E-01
RMM:  13    -0.779028774944E+02   -0.26883E-02   -0.15515E-02  2749   0.455E-01    0.120E-01
RMM:  14    -0.779035277078E+02   -0.65021E-03   -0.66820E-03  2809   0.233E-01    0.581E-02
RMM:  15    -0.779041214475E+02   -0.59374E-03   -0.22694E-03  2804   0.141E-01    0.390E-02
RMM:  16    -0.779043720054E+02   -0.25056E-03   -0.76464E-04  2519   0.104E-01    0.262E-02
RMM:  17    -0.779045323674E+02   -0.16036E-03   -0.40095E-04  2368   0.708E-02    0.201E-02
RMM:  18    -0.779047826969E+02   -0.25033E-03   -0.27199E-04  2228   0.652E-02    0.135E-02
RMM:  19    -0.779049508912E+02   -0.16819E-03   -0.99766E-05  1856   0.408E-02    0.751E-03
RMM:  20    -0.779051920370E+02   -0.24115E-03   -0.49627E-05  1627   0.355E-02    0.565E-03
RMM:  21    -0.779054304758E+02   -0.23844E-03   -0.38768E-05  1567   0.300E-02    0.452E-03
RMM:  22    -0.779054923277E+02   -0.61852E-04   -0.13289E-05  1341   0.257E-02    0.286E-03
RMM:  23    -0.779055444963E+02   -0.52169E-04   -0.78363E-06  1293   0.200E-02    0.262E-03
RMM:  24    -0.779055640159E+02   -0.19520E-04   -0.49831E-06  1257   0.188E-02    0.251E-03
RMM:  25    -0.779055695622E+02   -0.55464E-05   -0.29520E-06  1233   0.143E-02
   1 F= -.81028278E+02 E0= -.81034157E+02  d E =-.810283E+02
       N       E                     dE             d eps       ncg     rms          rms(c)
DAV:   1    -0.590571233055E+02    0.18848E+02   -0.76972E+02  2000   0.114E+02    0.154E+01
RMM:   2    -0.665996243842E+02   -0.75425E+01   -0.80042E+01  2796   0.464E+01    0.830E+00
RMM:   3    -0.662245626360E+02    0.37506E+00   -0.71137E+00  2970   0.135E+01    0.644E+00
RMM:   4    -0.666617060413E+02   -0.43714E+00   -0.32053E+00  2747   0.916E+00    0.599E+00
RMM:   5    -0.655458632599E+02    0.11158E+01   -0.20297E+00  2486   0.725E+00    0.172E+00
RMM:   6    -0.654866209394E+02    0.59242E-01   -0.44895E-01  2657   0.345E+00    0.101E+00
RMM:   7    -0.654670460288E+02    0.19575E-01   -0.98281E-02  2427   0.175E+00    0.432E-01
RMM:   8    -0.654690494070E+02   -0.20034E-02   -0.53917E-02  2829   0.862E-01    0.200E-01
RMM:   9    -0.654684881691E+02    0.56124E-03   -0.10625E-02  2705   0.405E-01    0.923E-02
RMM:  10    -0.654686622360E+02   -0.17407E-03   -0.38651E-03  2878   0.221E-01    0.504E-02
RMM:  11    -0.654687161180E+02   -0.53882E-04   -0.93934E-04  2719   0.110E-01    0.257E-02
RMM:  12    -0.654687693000E+02   -0.53182E-04   -0.29957E-04  2462   0.696E-02    0.136E-02
RMM:  13    -0.654688333201E+02   -0.64020E-04   -0.10257E-04  1981   0.454E-02    0.740E-03
RMM:  14    -0.654689353326E+02   -0.10201E-03   -0.43617E-05  1608   0.346E-02    0.527E-03
RMM:  15    -0.654690372624E+02   -0.10193E-03   -0.37722E-05  1571   0.350E-02    0.304E-03
RMM:  16    -0.654691040268E+02   -0.66764E-04   -0.23628E-05  1432   0.289E-02    0.249E-03
RMM:  17    -0.654691459788E+02   -0.41952E-04   -0.15207E-05  1357   0.246E-02    0.240E-03
RMM:  18    -0.654691594465E+02   -0.13468E-04   -0.63911E-06  1239   0.201E-02    0.121E-03
RMM:  19    -0.654691715808E+02   -0.12134E-04   -0.43943E-06  1223   0.149E-02    0.208E-03
RMM:  20    -0.654691757932E+02   -0.42124E-05   -0.21091E-06  1218   0.137E-02
   2 F= -.68629107E+02 E0= -.68629690E+02  d E =0.123992E+02
       N       E                     dE             d eps       ncg     rms          rms(c)
DAV:   1    -0.784111943399E+02   -0.12942E+02   -0.42570E+02  2000   0.761E+01    0.142E+01
RMM:   2    -0.786948975814E+02   -0.28370E+00   -0.28112E+01  2920   0.280E+01    0.557E+00
RMM:   3    -0.795520678804E+02   -0.85717E+00   -0.69098E+00  3028   0.109E+01    0.592E+00
RMM:   4    -0.790691771751E+02    0.48289E+00   -0.21502E+00  2833   0.671E+00    0.489E+00
RMM:   5    -0.790450240724E+02    0.24153E-01   -0.18896E+00  2934   0.497E+00    0.189E+00
RMM:   6    -0.790206792860E+02    0.24345E-01   -0.37530E-01  2786   0.276E+00    0.143E+00
RMM:   7    -0.789941029606E+02    0.26576E-01   -0.32619E-01  2937   0.187E+00    0.730E-01
RMM:   8    -0.790078904391E+02   -0.13787E-01   -0.38578E-01  3037   0.179E+00    0.689E-01
RMM:   9    -0.789957109651E+02    0.12179E-01   -0.73596E-02  3010   0.824E-01    0.244E-01
RMM:  10    -0.789964728626E+02   -0.76190E-03   -0.46641E-02  3063   0.648E-01    0.272E-01
RMM:  11    -0.789945028666E+02    0.19700E-02   -0.96083E-03  2765   0.349E-01    0.204E-01
RMM:  12    -0.789934121001E+02    0.10908E-02   -0.84631E-03  2923   0.283E-01    0.691E-02
RMM:  13    -0.789937903120E+02   -0.37821E-03   -0.16644E-03  2911   0.118E-01    0.278E-02
RMM:  14    -0.789941038093E+02   -0.31350E-03   -0.65212E-04  2634   0.856E-02    0.271E-02
RMM:  15    -0.789941639064E+02   -0.60097E-04   -0.24330E-04  2134   0.492E-02    0.146E-02
RMM:  16    -0.789943274716E+02   -0.16357E-03   -0.17058E-04  2204   0.499E-02    0.711E-03
RMM:  17    -0.789943760452E+02   -0.48574E-04   -0.72020E-05  1717   0.327E-02    0.684E-03
RMM:  18    -0.789944423766E+02   -0.66331E-04   -0.33863E-05  1556   0.285E-02    0.420E-03
RMM:  19    -0.789944572745E+02   -0.14898E-04   -0.19493E-05  1454   0.232E-02    0.144E-03
RMM:  20    -0.789944644567E+02   -0.71823E-05   -0.94412E-06  1333   0.236E-02
   3 F= -.82125800E+02 E0= -.82129887E+02  d E =-.109752E+01
       N       E                     dE             d eps       ncg     rms          rms(c)
DAV:   1    -0.790696653874E+02   -0.75208E-01   -0.23330E+00  2576   0.608E+00    0.676E-01
RMM:   2    -0.790742715202E+02   -0.46061E-02   -0.77719E-02  2817   0.184E+00    0.404E-01
RMM:   3    -0.790765798083E+02   -0.23083E-02   -0.21242E-02  2835   0.706E-01    0.271E-01
RMM:   4    -0.790751258531E+02    0.14540E-02   -0.72678E-03  2681   0.463E-01    0.167E-01
RMM:   5    -0.790743061696E+02    0.81968E-03   -0.20216E-03  2656   0.238E-01    0.658E-02
RMM:   6    -0.790742082667E+02    0.97903E-04   -0.57993E-04  2406   0.151E-01    0.237E-02
RMM:   7    -0.790742267240E+02   -0.18457E-04   -0.28300E-04  2312   0.645E-02    0.115E-02
RMM:   8    -0.790742493314E+02   -0.22607E-04   -0.75551E-05  1746   0.436E-02    0.626E-03
RMM:   9    -0.790742646781E+02   -0.15347E-04   -0.17774E-05  1364   0.284E-02    0.380E-03
RMM:  10    -0.790742779751E+02   -0.13297E-04   -0.82784E-06  1254   0.233E-02    0.220E-03
RMM:  11    -0.790742914193E+02   -0.13444E-04   -0.61788E-06  1229   0.186E-02    0.152E-03
RMM:  12    -0.790743024308E+02   -0.11012E-04   -0.46296E-06  1229   0.162E-02    0.117E-03
RMM:  13    -0.790743141479E+02   -0.11717E-04   -0.47949E-06  1244   0.137E-02    0.119E-03
RMM:  14    -0.790743189622E+02   -0.48143E-05   -0.30961E-06  1231   0.127E-02
   4 F= -.82204083E+02 E0= -.82208590E+02  d E =-.117581E+01
       N       E                     dE             d eps       ncg     rms          rms(c)
DAV:   1    -0.779092722231E+02    0.11650E+01   -0.22566E+02  2000   0.631E+01    0.695E+00
RMM:   2    -0.788434931628E+02   -0.93422E+00   -0.14515E+01  2649   0.221E+01    0.379E+00
RMM:   3    -0.787899538905E+02    0.53539E-01   -0.25557E+00  2799   0.666E+00    0.326E+00
RMM:   4    -0.787765118158E+02    0.13442E-01   -0.48845E-01  2743   0.344E+00    0.244E+00
RMM:   5    -0.787691776267E+02    0.73342E-02   -0.16129E-01  2450   0.253E+00    0.138E+00
RMM:   6    -0.788157241842E+02   -0.46547E-01   -0.13429E-01  2663   0.189E+00    0.124E+00
RMM:   7    -0.787455545346E+02    0.70170E-01   -0.59100E-02  2469   0.145E+00    0.367E-01
RMM:   8    -0.787447611131E+02    0.79342E-03   -0.28303E-02  2743   0.656E-01    0.187E-01
RMM:   9    -0.787455525089E+02   -0.79140E-03   -0.64316E-03  2834   0.270E-01    0.992E-02
RMM:  10    -0.787464003596E+02   -0.84785E-03   -0.22559E-03  2869   0.172E-01    0.667E-02
RMM:  11    -0.787466674881E+02   -0.26713E-03   -0.44094E-04  2651   0.105E-01    0.280E-02
RMM:  12    -0.787468948711E+02   -0.22738E-03   -0.18389E-04  2331   0.606E-02    0.133E-02
RMM:  13    -0.787471281151E+02   -0.23324E-03   -0.86634E-05  1929   0.380E-02    0.867E-03
RMM:  14    -0.787473995722E+02   -0.27146E-03   -0.11343E-04  1966   0.445E-02    0.166E-02
RMM:  15    -0.787474516150E+02   -0.52043E-04   -0.28792E-05  1468   0.343E-02    0.700E-03
RMM:  16    -0.787475163668E+02   -0.64752E-04   -0.26004E-05  1432   0.314E-02    0.368E-03
RMM:  17    -0.787475292658E+02   -0.12899E-04   -0.98908E-06  1258   0.218E-02    0.275E-03
RMM:  18    -0.787475327243E+02   -0.34585E-05   -0.38164E-06  1230   0.189E-02
   5 F= -.81890138E+02 E0= -.81892832E+02  d E =0.313945E+00
       N       E                     dE             d eps       ncg     rms          rms(c)
DAV:   1    -0.794797146730E+02   -0.73219E+00   -0.10272E+02  2000   0.481E+01    0.433E+00
RMM:   2    -0.798415481050E+02   -0.36183E+00   -0.43790E+00  2695   0.119E+01    0.202E+00
RMM:   3    -0.799554410904E+02   -0.11389E+00   -0.86175E-01  2748   0.454E+00    0.164E+00
RMM:   4    -0.798355524645E+02    0.11989E+00   -0.21728E-01  2588   0.259E+00    0.940E-01
RMM:   5    -0.798228589301E+02    0.12694E-01   -0.82832E-02  2695   0.116E+00    0.393E-01
RMM:   6    -0.798209083642E+02    0.19506E-02   -0.19577E-02  2764   0.675E-01    0.171E-01
RMM:   7    -0.798206216537E+02    0.28671E-03   -0.58229E-03  2650   0.393E-01    0.114E-01
RMM:   8    -0.798203246894E+02    0.29696E-03   -0.13669E-03  2683   0.175E-01    0.619E-02
RMM:   9    -0.798202780088E+02    0.46681E-04   -0.96859E-04  2788   0.116E-01    0.397E-02
RMM:  10    -0.798202808183E+02   -0.28095E-05   -0.17002E-04  2223   0.602E-02    0.162E-02
RMM:  11    -0.798203452252E+02   -0.64407E-04   -0.76869E-05  1830   0.523E-02    0.113E-02
RMM:  12    -0.798204549852E+02   -0.10976E-03   -0.49387E-05  1645   0.403E-02    0.660E-03
RMM:  13    -0.798205464090E+02   -0.91424E-04   -0.26740E-05  1429   0.301E-02    0.497E-03
RMM:  14    -0.798206358765E+02   -0.89467E-04   -0.19775E-05  1355   0.281E-02    0.430E-03
RMM:  15    -0.798207193484E+02   -0.83472E-04   -0.21654E-05  1391   0.237E-02    0.190E-03
RMM:  16    -0.798207492650E+02   -0.29917E-04   -0.94288E-06  1274   0.212E-02    0.158E-03
RMM:  17    -0.798207720377E+02   -0.22773E-04   -0.68416E-06  1259   0.149E-02    0.159E-03
RMM:  18    -0.798207820022E+02   -0.99646E-05   -0.35286E-06  1218   0.131E-02
   6 F= -.82955771E+02 E0= -.82959672E+02  d E =-.751687E+00
       N       E                     dE             d eps       ncg     rms          rms(c)
DAV:   1    -0.798211577934E+02   -0.38576E-03   -0.12362E-02  2480   0.493E-01    0.427E-02
RMM:   2    -0.798211880419E+02   -0.30248E-04   -0.47125E-04  2348   0.130E-01    0.242E-02
RMM:   3    -0.798211932525E+02   -0.52106E-05   -0.83187E-05  1691   0.467E-02
   7 F= -.82956090E+02 E0= -.82960020E+02  d E =-.752006E+00
       N       E                     dE             d eps       ncg     rms          rms(c)
DAV:   1    -0.798995605563E+02   -0.78373E-01   -0.91705E+00  2000   0.132E+01    0.117E+00
RMM:   2    -0.799246493346E+02   -0.25089E-01   -0.32213E-01  2746   0.372E+00    0.665E-01
RMM:   3    -0.799316885837E+02   -0.70392E-02   -0.73264E-02  2776   0.138E+00    0.489E-01
RMM:   4    -0.799286979033E+02    0.29907E-02   -0.18623E-02  2580   0.764E-01    0.337E-01
RMM:   5    -0.799261360250E+02    0.25619E-02   -0.65767E-03  2617   0.442E-01    0.140E-01
RMM:   6    -0.799256340745E+02    0.50195E-03   -0.16137E-03  2335   0.290E-01    0.470E-02
RMM:   7    -0.799256682249E+02   -0.34150E-04   -0.88843E-04  2690   0.117E-01    0.207E-02
RMM:   8    -0.799256802618E+02   -0.12037E-04   -0.19175E-04  2159   0.551E-02    0.122E-02
RMM:   9    -0.799256904648E+02   -0.10203E-04   -0.49851E-05  1649   0.393E-02    0.687E-03
RMM:  10    -0.799256995821E+02   -0.91173E-05   -0.16660E-05  1318   0.302E-02
   8 F= -.83064433E+02 E0= -.83067279E+02  d E =-.108344E+00
       N       E                     dE             d eps       ncg     rms          rms(c)
DAV:   1    -0.798628195969E+02    0.62871E-01   -0.25970E+01  2000   0.222E+01    0.192E+00
RMM:   2    -0.799328760783E+02   -0.70056E-01   -0.86416E-01  2726   0.645E+00    0.105E+00
RMM:   3    -0.799537068607E+02   -0.20831E-01   -0.23675E-01  2800   0.242E+00    0.712E-01
RMM:   4    -0.799527839962E+02    0.92286E-03   -0.51186E-02  2568   0.126E+00    0.560E-01
RMM:   5    -0.799460529323E+02    0.67311E-02   -0.22374E-02  2635   0.774E-01    0.255E-01
RMM:   6    -0.799439598410E+02    0.20931E-02   -0.45640E-03  2336   0.501E-01    0.100E-01
RMM:   7    -0.799440829969E+02   -0.12316E-03   -0.38330E-03  2782   0.220E-01    0.610E-02
RMM:   8    -0.799440532517E+02    0.29745E-04   -0.60702E-04  2622   0.105E-01    0.326E-02
RMM:   9    -0.799440660731E+02   -0.12821E-04   -0.23668E-04  2255   0.754E-02    0.157E-02
RMM:  10    -0.799440838606E+02   -0.17787E-04   -0.60296E-05  1708   0.389E-02    0.803E-03
RMM:  11    -0.799441074913E+02   -0.23631E-04   -0.15028E-05  1322   0.298E-02    0.470E-03
RMM:  12    -0.799441236474E+02   -0.16156E-04   -0.81092E-06  1239   0.235E-02    0.280E-03
RMM:  13    -0.799441523904E+02   -0.28743E-04   -0.72994E-06  1233   0.190E-02    0.297E-03
RMM:  14    -0.799441806758E+02   -0.28285E-04   -0.74805E-06  1246   0.197E-02    0.245E-03
RMM:  15    -0.799441993227E+02   -0.18647E-04   -0.72787E-06  1267   0.165E-02    0.188E-03
RMM:  16    -0.799442071772E+02   -0.78546E-05   -0.41846E-06  1232   0.144E-02
   9 F= -.83089249E+02 E0= -.83090236E+02  d E =-.133160E+00
       N       E                     dE             d eps       ncg     rms          rms(c)
DAV:   1    -0.799484272442E+02   -0.42279E-02   -0.28585E+00  2000   0.731E+00    0.627E-01
RMM:   2    -0.799552490613E+02   -0.68218E-02   -0.88773E-02  2711   0.208E+00    0.350E-01
RMM:   3    -0.799565232308E+02   -0.12742E-02   -0.21724E-02  2831   0.724E-01    0.201E-01
RMM:   4    -0.799568992647E+02   -0.37603E-03   -0.47603E-03  2568   0.377E-01    0.141E-01
RMM:   5    -0.799567956409E+02    0.10362E-03   -0.18780E-03  2599   0.236E-01    0.895E-02
RMM:   6    -0.799563594680E+02    0.43617E-03   -0.49331E-04  2388   0.148E-01    0.291E-02
RMM:   7    -0.799563719142E+02   -0.12446E-04   -0.30275E-04  2307   0.613E-02    0.129E-02
RMM:   8    -0.799563782901E+02   -0.63760E-05   -0.49078E-05  1646   0.464E-02
  10 F= -.83099356E+02 E0= -.83100930E+02  d E =-.143267E+00
       N       E                     dE             d eps       ncg     rms          rms(c)
DAV:   1    -0.799841149848E+02   -0.27743E-01   -0.67412E+00  2000   0.115E+01    0.945E-01
RMM:   2    -0.800013041045E+02   -0.17189E-01   -0.23556E-01  2435   0.316E+00    0.512E-01
RMM:   3    -0.800047065102E+02   -0.34024E-02   -0.57944E-02  2766   0.111E+00    0.329E-01
RMM:   4    -0.800080105655E+02   -0.33041E-02   -0.14959E-02  2756   0.575E-01    0.292E-01
RMM:   5    -0.800046566021E+02    0.33540E-02   -0.39687E-03  2477   0.381E-01    0.120E-01
RMM:   6    -0.800044796445E+02    0.17696E-03   -0.17914E-03  2461   0.245E-01    0.598E-02
RMM:   7    -0.800045127672E+02   -0.33123E-04   -0.72725E-04  2661   0.117E-01    0.275E-02
RMM:   8    -0.800045042440E+02    0.85232E-05   -0.11633E-04  1964   0.537E-02    0.139E-02
RMM:   9    -0.800045148890E+02   -0.10645E-04   -0.32727E-05  1493   0.392E-02    0.706E-03
RMM:  10    -0.800045257776E+02   -0.10889E-04   -0.13038E-05  1282   0.286E-02    0.308E-03
RMM:  11    -0.800045322140E+02   -0.64365E-05   -0.63485E-06  1224   0.215E-02
  11 F= -.83150235E+02 E0= -.83151168E+02  d E =-.508787E-01
       N       E                     dE             d eps       ncg     rms          rms(c)
DAV:   1    -0.800037243780E+02    0.80140E-03   -0.19830E+00  2000   0.630E+00    0.506E-01
RMM:   2    -0.800087202212E+02   -0.49958E-02   -0.67837E-02  2454   0.168E+00    0.273E-01
RMM:   3    -0.800096436334E+02   -0.92341E-03   -0.15698E-02  2755   0.590E-01    0.175E-01
RMM:   4    -0.800105338422E+02   -0.89021E-03   -0.43827E-03  2745   0.313E-01    0.160E-01
RMM:   5    -0.800095667779E+02    0.96706E-03   -0.11275E-03  2471   0.205E-01    0.617E-02
RMM:   6    -0.800095337216E+02    0.33056E-04   -0.48054E-04  2375   0.129E-01    0.311E-02
RMM:   7    -0.800095428955E+02   -0.91739E-05   -0.19131E-04  2179   0.664E-02    0.138E-02
RMM:   8    -0.800095417725E+02    0.11229E-05   -0.29696E-05  1497   0.386E-02
  12 F= -.83156675E+02 E0= -.83157278E+02  d E =-.573188E-01
       N       E                     dE             d eps       ncg     rms          rms(c)
DAV:   1    -0.800357169724E+02   -0.26174E-01   -0.72216E+00  2000   0.120E+01    0.933E-01
RMM:   2    -0.800530418296E+02   -0.17325E-01   -0.21969E-01  2684   0.329E+00    0.498E-01
RMM:   3    -0.800569624873E+02   -0.39207E-02   -0.57673E-02  2824   0.110E+00    0.303E-01
RMM:   4    -0.800583032665E+02   -0.13408E-02   -0.10572E-02  2619   0.558E-01    0.206E-01
RMM:   5    -0.800577256509E+02    0.57762E-03   -0.34632E-03  2484   0.347E-01    0.120E-01
RMM:   6    -0.800570826127E+02    0.64304E-03   -0.11556E-03  2482   0.220E-01    0.493E-02
RMM:   7    -0.800570971184E+02   -0.14506E-04   -0.57748E-04  2524   0.922E-02    0.254E-02
RMM:   8    -0.800570903919E+02    0.67264E-05   -0.95270E-05  1887   0.570E-02
  13 F= -.83207121E+02 E0= -.83206936E+02  d E =-.504453E-01
       N       E                     dE             d eps       ncg     rms          rms(c)
DAV:   1    -0.800103612386E+02    0.46736E-01   -0.36142E+01  2000   0.268E+01    0.213E+00
RMM:   2    -0.801048154259E+02   -0.94454E-01   -0.11781E+00  2659   0.745E+00    0.113E+00
RMM:   3    -0.801270734730E+02   -0.22258E-01   -0.32183E-01  2838   0.253E+00    0.713E-01
RMM:   4    -0.801305637962E+02   -0.34903E-02   -0.53131E-02  2601   0.127E+00    0.415E-01
RMM:   5    -0.801299784897E+02    0.58531E-03   -0.14846E-02  2395   0.794E-01    0.253E-01
RMM:   6    -0.801274213101E+02    0.25572E-02   -0.57621E-03  2610   0.439E-01    0.122E-01
RMM:   7    -0.801272341019E+02    0.18721E-03   -0.28331E-03  2716   0.229E-01    0.613E-02
RMM:   8    -0.801272002517E+02    0.33850E-04   -0.47354E-04  2646   0.915E-02    0.309E-02
RMM:   9    -0.801272150662E+02   -0.14815E-04   -0.19403E-04  2208   0.669E-02    0.146E-02
RMM:  10    -0.801272182367E+02   -0.31704E-05   -0.44817E-05  1630   0.430E-02
  14 F= -.83284893E+02 E0= -.83283304E+02  d E =-.128217E+00
       N       E                     dE             d eps       ncg     rms          rms(c)
DAV:   1    -0.795489729237E+02    0.57824E+00   -0.14131E+02  2000   0.522E+01    0.450E+00
RMM:   2    -0.800123493058E+02   -0.46338E+00   -0.55988E+00  2671   0.148E+01    0.231E+00
RMM:   3    -0.801003989471E+02   -0.88050E-01   -0.12646E+00  2816   0.488E+00    0.157E+00
RMM:   4    -0.801337707009E+02   -0.33372E-01   -0.22942E-01  2564   0.270E+00    0.114E+00
RMM:   5    -0.801024365847E+02    0.31334E-01   -0.80222E-02  2427   0.175E+00    0.607E-01
RMM:   6    -0.800885621493E+02    0.13874E-01   -0.22217E-02  2496   0.983E-01    0.285E-01
RMM:   7    -0.800887559605E+02   -0.19381E-03   -0.17406E-02  2775   0.489E-01    0.122E-01
RMM:   8    -0.800885868357E+02    0.16912E-03   -0.24212E-03  2774   0.193E-01    0.586E-02
RMM:   9    -0.800886327260E+02   -0.45890E-04   -0.95650E-04  2612   0.144E-01    0.438E-02
RMM:  10    -0.800886083403E+02    0.24386E-04   -0.24049E-04  2358   0.815E-02    0.172E-02
RMM:  11    -0.800886353929E+02   -0.27053E-04   -0.15138E-04  2076   0.593E-02    0.244E-02
RMM:  12    -0.800886235139E+02    0.11879E-04   -0.42935E-05  1630   0.410E-02    0.394E-03
RMM:  13    -0.800886270131E+02   -0.34992E-05   -0.11393E-05  1330   0.232E-02
  15 F= -.83260932E+02 E0= -.83257916E+02  d E =-.104257E+00
       N       E                     dE             d eps       ncg     rms          rms(c)
DAV:   1    -0.799710084987E+02    0.11762E+00   -0.53734E+01  2000   0.310E+01    0.270E+00
RMM:   2    -0.800965985007E+02   -0.12559E+00   -0.16739E+00  2657   0.910E+00    0.142E+00
RMM:   3    -0.801674706206E+02   -0.70872E-01   -0.65506E-01  2782   0.337E+00    0.112E+00
RMM:   4    -0.801562128192E+02    0.11258E-01   -0.11416E-01  2657   0.169E+00    0.937E-01
RMM:   5    -0.801490957468E+02    0.71171E-02   -0.65715E-02  2616   0.116E+00    0.516E-01
RMM:   6    -0.801451701072E+02    0.39256E-02   -0.70475E-03  2277   0.614E-01    0.338E-01
RMM:   7    -0.801432592075E+02    0.19109E-02   -0.12896E-02  2737   0.483E-01    0.859E-02
RMM:   8    -0.801432682431E+02   -0.90356E-05   -0.20970E-03  2722   0.212E-01    0.609E-02
RMM:   9    -0.801431903083E+02    0.77935E-04   -0.53130E-04  2414   0.118E-01    0.312E-02
RMM:  10    -0.801431936840E+02   -0.33757E-05   -0.17413E-04  2167   0.606E-02    0.145E-02
RMM:  11    -0.801431984667E+02   -0.47827E-05   -0.39945E-05  1581   0.392E-02
  16 F= -.83307691E+02 E0= -.83305375E+02  d E =-.151016E+00
       N       E                     dE             d eps       ncg     rms          rms(c)
DAV:   1    -0.801108394940E+02    0.32354E-01   -0.19047E+01  2000   0.189E+01    0.155E+00
RMM:   2    -0.801512570930E+02   -0.40418E-01   -0.56592E-01  2462   0.507E+00    0.834E-01
RMM:   3    -0.801651427318E+02   -0.13886E-01   -0.18979E-01  2776   0.182E+00    0.548E-01
RMM:   4    -0.801684990598E+02   -0.33563E-02   -0.29550E-02  2725   0.844E-01    0.341E-01
RMM:   5    -0.801665419318E+02    0.19571E-02   -0.84994E-03  2521   0.560E-01    0.225E-01
RMM:   6    -0.801648973696E+02    0.16446E-02   -0.37799E-03  2461   0.366E-01    0.968E-02
RMM:   7    -0.801649345461E+02   -0.37176E-04   -0.19760E-03  2640   0.210E-01    0.529E-02
RMM:   8    -0.801648887444E+02    0.45802E-04   -0.35720E-04  2465   0.731E-02    0.283E-02
RMM:   9    -0.801648856720E+02    0.30724E-05   -0.20611E-04  2056   0.788E-02    0.229E-02
RMM:  10    -0.801648826931E+02    0.29789E-05   -0.49350E-05  1616   0.420E-02
  17 F= -.83333036E+02 E0= -.83330243E+02  d E =-.253446E-01
       N       E                     dE             d eps       ncg     rms          rms(c)
DAV:   1    -0.801652434536E+02   -0.35778E-03   -0.72817E-01  2032   0.369E+00    0.292E-01
RMM:   2    -0.801666301065E+02   -0.13867E-02   -0.19280E-02  2483   0.933E-01    0.161E-01
RMM:   3    -0.801670172938E+02   -0.38719E-03   -0.46096E-03  2727   0.319E-01    0.932E-02
RMM:   4    -0.801673263197E+02   -0.30903E-03   -0.14355E-03  2702   0.180E-01    0.838E-02
RMM:   5    -0.801670229716E+02    0.30335E-03   -0.34734E-04  2266   0.119E-01    0.305E-02
RMM:   6    -0.801670083760E+02    0.14596E-04   -0.15271E-04  1924   0.692E-02    0.144E-02
RMM:   7    -0.801670128106E+02   -0.44345E-05   -0.48854E-05  1594   0.389E-02
  18 F= -.83334486E+02 E0= -.83331776E+02  d E =-.267943E-01
       N       E                     dE             d eps       ncg     rms          rms(c)
DAV:   1    -0.801750576191E+02   -0.80492E-02   -0.78841E+00  2000   0.122E+01    0.954E-01
RMM:   2    -0.801905844615E+02   -0.15527E-01   -0.19899E-01  2575   0.316E+00    0.519E-01
RMM:   3    -0.801949453582E+02   -0.43609E-02   -0.57550E-02  2803   0.108E+00    0.298E-01
RMM:   4    -0.801954162153E+02   -0.47086E-03   -0.86595E-03  2595   0.504E-01    0.139E-01
RMM:   5    -0.801951683155E+02    0.24790E-03   -0.20569E-03  2339   0.309E-01    0.593E-02
RMM:   6    -0.801952861911E+02   -0.11788E-03   -0.10955E-03  2694   0.150E-01    0.493E-02
RMM:   7    -0.801951815583E+02    0.10463E-03   -0.40772E-04  2475   0.989E-02    0.254E-02
RMM:   8    -0.801951720078E+02    0.95505E-05   -0.68413E-05  1784   0.434E-02
  19 F= -.83364158E+02 E0= -.83361100E+02  d E =-.296725E-01
       N       E                     dE             d eps       ncg     rms          rms(c)
DAV:   1    -0.801298286257E+02    0.65353E-01   -0.31650E+01  2000   0.241E+01    0.194E+00
RMM:   2    -0.801951158901E+02   -0.65287E-01   -0.82251E-01  2567   0.636E+00    0.104E+00
RMM:   3    -0.802159628284E+02   -0.20847E-01   -0.26515E-01  2797   0.222E+00    0.635E-01
RMM:   4    -0.802205733463E+02   -0.46105E-02   -0.39688E-02  2544   0.109E+00    0.392E-01
RMM:   5    -0.802182847257E+02    0.22886E-02   -0.13710E-02  2460   0.699E-01    0.230E-01
RMM:   6    -0.802158153139E+02    0.24694E-02   -0.38356E-03  2495   0.391E-01    0.936E-02
RMM:   7    -0.802159225308E+02   -0.10722E-03   -0.26459E-03  2777   0.198E-01    0.511E-02
RMM:   8    -0.802159049004E+02    0.17630E-04   -0.41480E-04  2559   0.825E-02    0.283E-02
RMM:   9    -0.802159080051E+02   -0.31046E-05   -0.18680E-04  2126   0.730E-02    0.169E-02
RMM:  10    -0.802159052460E+02    0.27591E-05   -0.35353E-05  1533   0.376E-02
  20 F= -.83387775E+02 E0= -.83384254E+02  d E =-.532891E-01
       N       E                     dE             d eps       ncg     rms          rms(c)
DAV:   1    -0.802128222518E+02    0.30858E-02   -0.96513E+00  2000   0.129E+01    0.106E+00
RMM:   2    -0.802292879657E+02   -0.16466E-01   -0.23860E-01  2393   0.333E+00    0.588E-01
RMM:   3    -0.802347659921E+02   -0.54780E-02   -0.76946E-02  2767   0.116E+00    0.343E-01
RMM:   4    -0.802351816905E+02   -0.41570E-03   -0.89165E-03  2680   0.476E-01    0.153E-01
RMM:   5    -0.802350775011E+02    0.10419E-03   -0.24819E-03  2402   0.316E-01    0.680E-02
RMM:   6    -0.802352799796E+02   -0.20248E-03   -0.14465E-03  2715   0.171E-01    0.590E-02
RMM:   7    -0.802350764161E+02    0.20356E-03   -0.31283E-04  2355   0.103E-01    0.263E-02
RMM:   8    -0.802350675352E+02    0.88809E-05   -0.96532E-05  1863   0.458E-02
  21 F= -.83406644E+02 E0= -.83402947E+02  d E =-.188695E-01
       N       E                     dE             d eps       ncg     rms          rms(c)
DAV:   1    -0.802350192857E+02    0.57130E-04   -0.60632E-02  2480   0.103E+00    0.804E-02
RMM:   2    -0.802351192191E+02   -0.99933E-04   -0.14043E-03  2487   0.259E-01    0.463E-02
RMM:   3    -0.802351612289E+02   -0.42010E-04   -0.40901E-04  2100   0.936E-02    0.247E-02
RMM:   4    -0.802351803325E+02   -0.19104E-04   -0.95697E-05  1901   0.666E-02    0.205E-02
RMM:   5    -0.802351678833E+02    0.12449E-04   -0.21810E-05  1389   0.426E-02    0.865E-03
RMM:   6    -0.802351678975E+02   -0.14159E-07   -0.81842E-06  1231   0.290E-02
  22 F= -.83406766E+02 E0= -.83403081E+02  d E =-.189913E-01
       N       E                     dE             d eps       ncg     rms          rms(c)
DAV:   1    -0.802511523267E+02   -0.15984E-01   -0.30400E+00  2000   0.727E+00    0.573E-01
RMM:   2    -0.802561379845E+02   -0.49857E-02   -0.64943E-02  2551   0.174E+00    0.321E-01
RMM:   3    -0.802571348616E+02   -0.99688E-03   -0.14065E-02  2799   0.556E-01    0.167E-01
RMM:   4    -0.802573171768E+02   -0.18232E-03   -0.22407E-03  2675   0.240E-01    0.594E-02
RMM:   5    -0.802573260756E+02   -0.88988E-05   -0.61237E-04  2385   0.156E-01    0.331E-02
RMM:   6    -0.802573149260E+02    0.11150E-04   -0.31087E-04  2417   0.827E-02    0.234E-02
RMM:   7    -0.802572930076E+02    0.21918E-04   -0.52684E-05  1701   0.484E-02    0.987E-03
RMM:   8    -0.802572933935E+02   -0.38585E-06   -0.18807E-05  1351   0.334E-02
  23 F= -.83428203E+02 E0= -.83424396E+02  d E =-.214368E-01
       N       E                     dE             d eps       ncg     rms          rms(c)
DAV:   1    -0.802377473464E+02    0.19546E-01   -0.27402E+01  2000   0.217E+01    0.174E+00
RMM:   2    -0.802868097712E+02   -0.49062E-01   -0.62620E-01  2490   0.544E+00    0.962E-01
RMM:   3    -0.803011146520E+02   -0.14305E-01   -0.18223E-01  2822   0.185E+00    0.548E-01
RMM:   4    -0.803042893550E+02   -0.31747E-02   -0.26933E-02  2648   0.840E-01    0.284E-01
RMM:   5    -0.803031290533E+02    0.11603E-02   -0.97361E-03  2491   0.572E-01    0.169E-01
RMM:   6    -0.803018191036E+02    0.13099E-02   -0.29511E-03  2558   0.313E-01    0.673E-02
RMM:   7    -0.803018323471E+02   -0.13243E-04   -0.10552E-03  2676   0.148E-01    0.342E-02
RMM:   8    -0.803018369451E+02   -0.45980E-05   -0.22785E-04  2330   0.679E-02    0.196E-02
RMM:   9    -0.803018417417E+02   -0.47966E-05   -0.69871E-05  1775   0.537E-02
  24 F= -.83470723E+02 E0= -.83466657E+02  d E =-.639563E-01
       N       E                     dE             d eps       ncg     rms          rms(c)
DAV:   1    -0.799879653634E+02    0.31387E+00   -0.10875E+02  2000   0.421E+01    0.361E+00
RMM:   2    -0.802343417512E+02   -0.24638E+00   -0.30782E+00  2456   0.111E+01    0.195E+00
RMM:   3    -0.803046959896E+02   -0.70354E-01   -0.85562E-01  2816   0.383E+00    0.126E+00
RMM:   4    -0.803410212102E+02   -0.36325E-01   -0.16084E-01  2669   0.199E+00    0.997E-01
RMM:   5    -0.803014489012E+02    0.39572E-01   -0.57420E-02  2391   0.143E+00    0.397E-01
RMM:   6    -0.802993726801E+02    0.20762E-02   -0.24264E-02  2648   0.728E-01    0.171E-01
RMM:   7    -0.802993628725E+02    0.98076E-05   -0.62581E-03  2604   0.384E-01    0.748E-02
RMM:   8    -0.802993659753E+02   -0.31028E-05   -0.15103E-03  2749   0.169E-01    0.459E-02
RMM:   9    -0.802993962327E+02   -0.30257E-04   -0.45808E-04  2545   0.970E-02    0.271E-02
RMM:  10    -0.802994063647E+02   -0.10132E-04   -0.15352E-04  2103   0.595E-02    0.138E-02
RMM:  11    -0.802994149047E+02   -0.85400E-05   -0.56317E-05  1680   0.485E-02
  25 F= -.83464731E+02 E0= -.83460543E+02  d E =-.579650E-01
       N       E                     dE             d eps       ncg     rms          rms(c)
DAV:   1    -0.802354530330E+02    0.63953E-01   -0.32896E+01  2000   0.225E+01    0.191E+00
RMM:   2    -0.802884133574E+02   -0.52960E-01   -0.71350E-01  2496   0.609E+00    0.104E+00
RMM:   3    -0.803151765234E+02   -0.26763E-01   -0.30085E-01  2776   0.215E+00    0.626E-01
RMM:   4    -0.803210598251E+02   -0.58833E-02   -0.42249E-02  2658   0.992E-01    0.411E-01
RMM:   5    -0.803169780664E+02    0.40818E-02   -0.14721E-02  2524   0.693E-01    0.232E-01
RMM:   6    -0.803151126930E+02    0.18654E-02   -0.38090E-03  2403   0.372E-01    0.848E-02
RMM:   7    -0.803152395716E+02   -0.12688E-03   -0.20393E-03  2700   0.201E-01    0.497E-02
RMM:   8    -0.803152129025E+02    0.26669E-04   -0.39534E-04  2496   0.897E-02    0.272E-02
RMM:   9    -0.803152182100E+02   -0.53075E-05   -0.15909E-04  2039   0.659E-02    0.199E-02
RMM:  10    -0.803152148751E+02    0.33350E-05   -0.35003E-05  1573   0.369E-02
  26 F= -.83482385E+02 E0= -.83478211E+02  d E =-.756183E-01
       N       E                     dE             d eps       ncg     rms          rms(c)
DAV:   1    -0.803280498151E+02   -0.12832E-01   -0.46807E+00  2000   0.862E+00    0.704E-01
RMM:   2    -0.803341178708E+02   -0.60681E-02   -0.92878E-02  2369   0.219E+00    0.398E-01
RMM:   3    -0.803374636704E+02   -0.33458E-02   -0.37446E-02  2736   0.818E-01    0.231E-01
RMM:   4    -0.803388890610E+02   -0.14254E-02   -0.79476E-03  2687   0.430E-01    0.204E-01
RMM:   5    -0.803373013801E+02    0.15877E-02   -0.17936E-03  2396   0.266E-01    0.751E-02
RMM:   6    -0.803373139154E+02   -0.12535E-04   -0.74906E-04  2554   0.122E-01    0.277E-02
RMM:   7    -0.803373230138E+02   -0.90983E-05   -0.16027E-04  2133   0.664E-02    0.127E-02
RMM:   8    -0.803373228179E+02    0.19586E-06   -0.31517E-05  1511   0.352E-02
  27 F= -.83502211E+02 E0= -.83497886E+02  d E =-.198269E-01
       N       E                     dE             d eps       ncg     rms          rms(c)
DAV:   1    -0.803387077810E+02   -0.13848E-02   -0.23534E+00  2000   0.613E+00    0.496E-01
RMM:   2    -0.803418418021E+02   -0.31340E-02   -0.47102E-02  2393   0.155E+00    0.280E-01
RMM:   3    -0.803433250675E+02   -0.14833E-02   -0.17758E-02  2734   0.569E-01    0.155E-01
RMM:   4    -0.803441338103E+02   -0.80874E-03   -0.37870E-03  2705   0.298E-01    0.135E-01
RMM:   5    -0.803433328485E+02    0.80096E-03   -0.88931E-04  2424   0.185E-01    0.500E-02
RMM:   6    -0.803433472774E+02   -0.14429E-04   -0.39670E-04  2366   0.884E-02    0.192E-02
RMM:   7    -0.803433482577E+02   -0.98030E-06   -0.71760E-05  1776   0.542E-02
  28 F= -.83506643E+02 E0= -.83502214E+02  d E =-.242587E-01
       N       E                     dE             d eps       ncg     rms          rms(c)
DAV:   1    -0.803555206710E+02   -0.12173E-01   -0.95531E-01  2048   0.392E+00    0.313E-01
RMM:   2    -0.803570001177E+02   -0.14794E-02   -0.19482E-02  2639   0.930E-01    0.176E-01
RMM:   3    -0.803574212411E+02   -0.42112E-03   -0.42433E-03  2747   0.307E-01    0.101E-01
RMM:   4    -0.803575957967E+02   -0.17456E-03   -0.13508E-03  2621   0.189E-01    0.831E-02
RMM:   5    -0.803573330045E+02    0.26279E-03   -0.26597E-04  2180   0.109E-01    0.220E-02
RMM:   6    -0.803573338272E+02   -0.82271E-06   -0.10306E-04  1867   0.563E-02    0.815E-03
RMM:   7    -0.803573363292E+02   -0.25020E-05   -0.22954E-05  1392   0.325E-02
  29 F= -.83519349E+02 E0= -.83514837E+02  d E =-.127056E-01
       N       E                     dE             d eps       ncg     rms          rms(c)
DAV:   1    -0.803764464646E+02   -0.19113E-01   -0.86253E+00  2000   0.117E+01    0.937E-01
RMM:   2    -0.803889383973E+02   -0.12492E-01   -0.16654E-01  2533   0.282E+00    0.521E-01
RMM:   3    -0.803936979049E+02   -0.47595E-02   -0.50628E-02  2766   0.995E-01    0.300E-01
RMM:   4    -0.803959684006E+02   -0.22705E-02   -0.12288E-02  2668   0.550E-01    0.258E-01
RMM:   5    -0.803932428962E+02    0.27255E-02   -0.29924E-03  2412   0.343E-01    0.785E-02
RMM:   6    -0.803932435600E+02   -0.66372E-06   -0.12197E-03  2567   0.164E-01    0.305E-02
RMM:   7    -0.803932649462E+02   -0.21386E-04   -0.27132E-04  2379   0.716E-02    0.155E-02
RMM:   8    -0.803932674868E+02   -0.25406E-05   -0.55312E-05  1689   0.408E-02
  30 F= -.83551491E+02 E0= -.83546734E+02  d E =-.448481E-01
       N       E                     dE             d eps       ncg     rms          rms(c)
DAV:   1    -0.803644934065E+02    0.28772E-01   -0.34618E+01  2000   0.232E+01    0.189E+00
RMM:   2    -0.804161118565E+02   -0.51618E-01   -0.68379E-01  2461   0.582E+00    0.104E+00
RMM:   3    -0.804405269028E+02   -0.24415E-01   -0.26934E-01  2768   0.214E+00    0.621E-01
RMM:   4    -0.804509493079E+02   -0.10422E-01   -0.50308E-02  2662   0.109E+00    0.514E-01
RMM:   5    -0.804404302206E+02    0.10519E-01   -0.15220E-02  2470   0.727E-01    0.195E-01
RMM:   6    -0.804401629980E+02    0.26722E-03   -0.51965E-03  2551   0.348E-01    0.740E-02
RMM:   7    -0.804402198305E+02   -0.56832E-04   -0.12777E-03  2673   0.175E-01    0.365E-02
RMM:   8    -0.804402369239E+02   -0.17093E-04   -0.32594E-04  2517   0.749E-02    0.215E-02
RMM:   9    -0.804402448510E+02   -0.79271E-05   -0.92530E-05  1903   0.493E-02
  31 F= -.83591193E+02 E0= -.83585976E+02  d E =-.845498E-01
       N       E                     dE             d eps       ncg     rms          rms(c)
DAV:   1    -0.800696256192E+02    0.37061E+00   -0.13753E+02  2000   0.449E+01    0.393E+00
RMM:   2    -0.803584931320E+02   -0.28887E+00   -0.36594E+00  2511   0.119E+01    0.209E+00
RMM:   3    -0.804529813098E+02   -0.94488E-01   -0.10980E+00  2773   0.406E+00    0.140E+00
RMM:   4    -0.804535621144E+02   -0.58080E-03   -0.13349E-01  2596   0.171E+00    0.664E-01
RMM:   5    -0.804619471444E+02   -0.83850E-02   -0.56508E-02  2538   0.131E+00    0.495E-01
RMM:   6    -0.804490587970E+02    0.12888E-01   -0.12978E-02  2413   0.755E-01    0.190E-01
RMM:   7    -0.804489200551E+02    0.13874E-03   -0.68427E-03  2682   0.349E-01    0.781E-02
RMM:   8    -0.804489688831E+02   -0.48828E-04   -0.12620E-03  2752   0.153E-01    0.499E-02
RMM:   9    -0.804490093350E+02   -0.40452E-04   -0.55636E-04  2521   0.105E-01    0.264E-02
RMM:  10    -0.804490206406E+02   -0.11306E-04   -0.13296E-04  2033   0.605E-02    0.182E-02
RMM:  11    -0.804490266661E+02   -0.60255E-05   -0.76628E-05  1801   0.487E-02
  32 F= -.83586799E+02 E0= -.83580219E+02  d E =-.801563E-01
       N       E                     dE             d eps       ncg     rms          rms(c)
DAV:   1    -0.803683395127E+02    0.80681E-01   -0.38593E+01  2000   0.231E+01    0.199E+00
RMM:   2    -0.804262353473E+02   -0.57896E-01   -0.78080E-01  2575   0.609E+00    0.107E+00
RMM:   3    -0.804589581231E+02   -0.32723E-01   -0.34428E-01  2759   0.219E+00    0.684E-01
RMM:   4    -0.804682259835E+02   -0.92679E-02   -0.58090E-02  2676   0.115E+00    0.597E-01
RMM:   5    -0.804576976829E+02    0.10528E-01   -0.16567E-02  2351   0.768E-01    0.241E-01
RMM:   6    -0.804571986901E+02    0.49899E-03   -0.53948E-03  2585   0.353E-01    0.854E-02
RMM:   7    -0.804572794418E+02   -0.80752E-04   -0.18069E-03  2708   0.184E-01    0.413E-02
RMM:   8    -0.804572635435E+02    0.15898E-04   -0.32585E-04  2423   0.825E-02    0.219E-02
RMM:   9    -0.804572761213E+02   -0.12578E-04   -0.12213E-04  1923   0.557E-02    0.166E-02
RMM:  10    -0.804572734784E+02    0.26430E-05   -0.24463E-05  1417   0.341E-02
  33 F= -.83601798E+02 E0= -.83596046E+02  d E =-.951547E-01
       N       E                     dE             d eps       ncg     rms          rms(c)
DAV:   1    -0.804703900826E+02   -0.13114E-01   -0.21234E+00  2000   0.550E+00    0.453E-01
RMM:   2    -0.804728042160E+02   -0.24141E-02   -0.36583E-02  2434   0.137E+00    0.260E-01
RMM:   3    -0.804752647127E+02   -0.24605E-02   -0.17965E-02  2659   0.617E-01    0.194E-01
RMM:   4    -0.804742875713E+02    0.97714E-03   -0.35934E-03  2469   0.330E-01    0.127E-01
RMM:   5    -0.804742246097E+02    0.62962E-04   -0.10188E-03  2562   0.153E-01    0.621E-02
RMM:   6    -0.804741837546E+02    0.40855E-04   -0.19415E-04  2088   0.106E-01    0.244E-02
RMM:   7    -0.804741936010E+02   -0.98464E-05   -0.13912E-04  2013   0.574E-02    0.143E-02
RMM:   8    -0.804741919686E+02    0.16324E-05   -0.24755E-05  1428   0.340E-02
  34 F= -.83616125E+02 E0= -.83610164E+02  d E =-.143269E-01
       N       E                     dE             d eps       ncg     rms          rms(c)
DAV:   1    -0.804769458646E+02   -0.27523E-02   -0.61572E+00  2000   0.937E+00    0.770E-01
RMM:   2    -0.804840514599E+02   -0.71056E-02   -0.10901E-01  2442   0.236E+00    0.438E-01
RMM:   3    -0.804912123431E+02   -0.71609E-02   -0.55650E-02  2689   0.105E+00    0.326E-01
RMM:   4    -0.804888115261E+02    0.24008E-02   -0.10281E-02  2486   0.558E-01    0.228E-01
RMM:   5    -0.804885269650E+02    0.28456E-03   -0.28372E-03  2613   0.258E-01    0.114E-01
RMM:   6    -0.804884231571E+02    0.10381E-03   -0.61725E-04  2251   0.186E-01    0.425E-02
RMM:   7    -0.804884449789E+02   -0.21822E-04   -0.36193E-04  2421   0.945E-02    0.197E-02
RMM:   8    -0.804884434801E+02    0.14987E-05   -0.74071E-05  1789   0.436E-02
  35 F= -.83626017E+02 E0= -.83619707E+02  d E =-.242188E-01
       N       E                     dE             d eps       ncg     rms          rms(c)
DAV:   1    -0.804967760997E+02   -0.83311E-02   -0.37612E-01  2384   0.233E+00    0.191E-01
RMM:   2    -0.804972158562E+02   -0.43976E-03   -0.60916E-03  2445   0.550E-01    0.104E-01
RMM:   3    -0.804976081032E+02   -0.39225E-03   -0.24400E-03  2651   0.241E-01    0.806E-02
RMM:   4    -0.804974223873E+02    0.18572E-03   -0.51812E-04  2333   0.134E-01    0.507E-02
RMM:   5    -0.804974302291E+02   -0.78419E-05   -0.17486E-04  2082   0.682E-02    0.224E-02
RMM:   6    -0.804974225221E+02    0.77071E-05   -0.36338E-05  1539   0.530E-02
  36 F= -.83633790E+02 E0= -.83627391E+02  d E =-.777303E-02
       N       E                     dE             d eps       ncg     rms          rms(c)
DAV:   1    -0.805167338842E+02   -0.19304E-01   -0.34010E+00  2000   0.699E+00    0.568E-01
RMM:   2    -0.805211082228E+02   -0.43743E-02   -0.57432E-02  2566   0.159E+00    0.318E-01
RMM:   3    -0.805242295793E+02   -0.31214E-02   -0.18905E-02  2692   0.676E-01    0.244E-01
RMM:   4    -0.805223736560E+02    0.18559E-02   -0.38338E-03  2448   0.367E-01    0.145E-01
RMM:   5    -0.805224134059E+02   -0.39750E-04   -0.18279E-03  2666   0.200E-01    0.663E-02
RMM:   6    -0.805222983611E+02    0.11504E-03   -0.33686E-04  2147   0.137E-01    0.196E-02
RMM:   7    -0.805223231169E+02   -0.24756E-04   -0.27859E-04  2208   0.600E-02    0.132E-02
RMM:   8    -0.805223200391E+02    0.30778E-05   -0.40767E-05  1580   0.523E-02
  37 F= -.83655095E+02 E0= -.83648434E+02  d E =-.290782E-01
       N       E                     dE             d eps       ncg     rms          rms(c)
DAV:   1    -0.805390899601E+02   -0.16767E-01   -0.13668E+01  2000   0.139E+01    0.114E+00
RMM:   2    -0.805565686807E+02   -0.17479E-01   -0.22857E-01  2501   0.331E+00    0.625E-01
RMM:   3    -0.805704144440E+02   -0.13846E-01   -0.95463E-02  2689   0.144E+00    0.479E-01
RMM:   4    -0.805641517161E+02    0.62627E-02   -0.16647E-02  2449   0.744E-01    0.313E-01
RMM:   5    -0.805640473417E+02    0.10437E-03   -0.71109E-03  2658   0.393E-01    0.143E-01
RMM:   6    -0.805636288671E+02    0.41847E-03   -0.14270E-03  2241   0.279E-01    0.467E-02
RMM:   7    -0.805637025976E+02   -0.73731E-04   -0.96154E-04  2613   0.114E-01    0.275E-02
RMM:   8    -0.805636982593E+02    0.43383E-05   -0.14161E-04  2034   0.644E-02    0.121E-02
RMM:   9    -0.805637031162E+02   -0.48569E-05   -0.42508E-05  1560   0.429E-02
  38 F= -.83689408E+02 E0= -.83682257E+02  d E =-.633909E-01
       N       E                     dE             d eps       ncg     rms          rms(c)
DAV:   1    -0.804970642654E+02    0.66634E-01   -0.54940E+01  2000   0.274E+01    0.230E+00
RMM:   2    -0.805790077567E+02   -0.81943E-01   -0.10513E+00  2462   0.686E+00    0.123E+00
RMM:   3    -0.806351904669E+02   -0.56183E-01   -0.45915E-01  2699   0.293E+00    0.941E-01
RMM:   4    -0.806210144478E+02    0.14176E-01   -0.70732E-02  2488   0.144E+00    0.723E-01
RMM:   5    -0.806173144772E+02    0.37000E-02   -0.26270E-02  2512   0.810E-01    0.326E-01
RMM:   6    -0.806162473867E+02    0.10671E-02   -0.64462E-03  2265   0.581E-01    0.121E-01
RMM:   7    -0.806162542712E+02   -0.68845E-05   -0.30802E-03  2698   0.240E-01    0.465E-02
RMM:   8    -0.806162845681E+02   -0.30297E-04   -0.57961E-04  2644   0.969E-02    0.278E-02
RMM:   9    -0.806162968111E+02   -0.12243E-04   -0.18843E-04  2165   0.663E-02    0.150E-02
RMM:  10    -0.806163035335E+02   -0.67225E-05   -0.50757E-05  1586   0.422E-02
  39 F= -.83728307E+02 E0= -.83720377E+02  d E =-.102290E+00
       N       E                     dE             d eps       ncg     rms          rms(c)
DAV:   1    -0.799516815327E+02    0.66462E+00   -0.21640E+02  2000   0.526E+01    0.496E+00
RMM:   2    -0.805242225325E+02   -0.57254E+00   -0.69415E+00  2608   0.141E+01    0.244E+00
RMM:   3    -0.806545764317E+02   -0.13035E+00   -0.13785E+00  2720   0.469E+00    0.193E+00
RMM:   4    -0.806747454799E+02   -0.20169E-01   -0.23423E-01  2559   0.247E+00    0.174E+00
RMM:   5    -0.806239463929E+02    0.50799E-01   -0.11659E-01  2307   0.188E+00    0.635E-01
RMM:   6    -0.806194907883E+02    0.44556E-02   -0.25431E-02  2314   0.111E+00    0.269E-01
RMM:   7    -0.806193571867E+02    0.13360E-03   -0.15244E-02  2701   0.471E-01    0.109E-01
RMM:   8    -0.806192923940E+02    0.64793E-04   -0.25190E-03  2757   0.217E-01    0.661E-02
RMM:   9    -0.806193057804E+02   -0.13386E-04   -0.11571E-03  2633   0.143E-01    0.390E-02
RMM:  10    -0.806193223658E+02   -0.16585E-04   -0.33348E-04  2327   0.820E-02    0.282E-02
RMM:  11    -0.806193342489E+02   -0.11883E-04   -0.11721E-04  1961   0.515E-02    0.139E-02
RMM:  12    -0.806193378336E+02   -0.35847E-05   -0.32136E-05  1460   0.407E-02
  40 F= -.83705545E+02 E0= -.83697059E+02  d E =-.795283E-01
       N       E                     dE             d eps       ncg     rms          rms(c)
DAV:   1    -0.803632034062E+02    0.25613E+00   -0.98590E+01  2000   0.346E+01    0.317E+00
RMM:   2    -0.805705365222E+02   -0.20733E+00   -0.25424E+00  2592   0.940E+00    0.161E+00
RMM:   3    -0.806665017607E+02   -0.95965E-01   -0.80466E-01  2746   0.348E+00    0.138E+00
RMM:   4    -0.806395110826E+02    0.26991E-01   -0.12264E-01  2487   0.181E+00    0.114E+00
RMM:   5    -0.806386832715E+02    0.82781E-03   -0.85649E-02  2628   0.112E+00    0.545E-01
RMM:   6    -0.806310660013E+02    0.76173E-02   -0.13834E-02  2209   0.806E-01    0.196E-01
RMM:   7    -0.806314148639E+02   -0.34886E-03   -0.10035E-02  2718   0.412E-01    0.100E-01
RMM:   8    -0.806312720829E+02    0.14278E-03   -0.13655E-03  2622   0.151E-01    0.402E-02
RMM:   9    -0.806312794417E+02   -0.73588E-05   -0.45658E-04  2281   0.127E-01    0.355E-02
RMM:  10    -0.806312656930E+02    0.13749E-04   -0.20104E-04  2041   0.773E-02    0.143E-02
RMM:  11    -0.806312715375E+02   -0.58445E-05   -0.57039E-05  1708   0.378E-02
  41 F= -.83734810E+02 E0= -.83726533E+02  d E =-.108793E+00
       N       E                     dE             d eps       ncg     rms          rms(c)
DAV:   1    -0.806452136259E+02   -0.13948E-01   -0.15776E-01  2208   0.152E+00    0.121E-01
RMM:   2    -0.806454332989E+02   -0.21967E-03   -0.33798E-03  2328   0.454E-01    0.714E-02
RMM:   3    -0.806456203096E+02   -0.18701E-03   -0.14512E-03  2633   0.186E-01    0.572E-02
RMM:   4    -0.806455479911E+02    0.72318E-04   -0.30516E-04  2281   0.928E-02    0.386E-02
RMM:   5    -0.806455408600E+02    0.71311E-05   -0.69719E-05  1738   0.523E-02
  42 F= -.83747821E+02 E0= -.83739527E+02  d E =-.130111E-01
       N       E                     dE             d eps       ncg     rms          rms(c)
DAV:   1    -0.806823219444E+02   -0.36774E-01   -0.14218E+00  2000   0.457E+00    0.363E-01
RMM:   2    -0.806843305755E+02   -0.20086E-02   -0.30434E-02  2344   0.135E+00    0.211E-01
RMM:   3    -0.806860316872E+02   -0.17011E-02   -0.13603E-02  2710   0.552E-01    0.169E-01
RMM:   4    -0.806853833289E+02    0.64836E-03   -0.26416E-03  2602   0.259E-01    0.117E-01
RMM:   5    -0.806852961729E+02    0.87156E-04   -0.66702E-04  2490   0.144E-01    0.577E-02
RMM:   6    -0.806852771210E+02    0.19052E-04   -0.14674E-04  2025   0.955E-02    0.173E-02
RMM:   7    -0.806852851118E+02   -0.79909E-05   -0.87033E-05  1841   0.524E-02
  43 F= -.83783833E+02 E0= -.83775554E+02  d E =-.490229E-01
       N       E                     dE             d eps       ncg     rms          rms(c)
DAV:   1    -0.807393484557E+02   -0.54071E-01   -0.57132E+00  2000   0.915E+00    0.721E-01
RMM:   2    -0.807469041974E+02   -0.75557E-02   -0.11549E-01  2305   0.271E+00    0.419E-01
RMM:   3    -0.807537975460E+02   -0.68933E-02   -0.59891E-02  2711   0.114E+00    0.325E-01
RMM:   4    -0.807520160867E+02    0.17815E-02   -0.10974E-02  2626   0.521E-01    0.242E-01
RMM:   5    -0.807514189962E+02    0.59709E-03   -0.25485E-03  2535   0.283E-01    0.127E-01
RMM:   6    -0.807513688163E+02    0.50180E-04   -0.63415E-04  2254   0.191E-01    0.381E-02
RMM:   7    -0.807513961098E+02   -0.27293E-04   -0.38881E-04  2474   0.938E-02    0.154E-02
RMM:   8    -0.807514024819E+02   -0.63721E-05   -0.86960E-05  1786   0.380E-02
  44 F= -.83842675E+02 E0= -.83834429E+02  d E =-.107865E+00
       N       E                     dE             d eps       ncg     rms          rms(c)
DAV:   1    -0.807767084372E+02   -0.25312E-01   -0.22943E+01  2000   0.183E+01    0.145E+00
RMM:   2    -0.808113104471E+02   -0.34602E-01   -0.50676E-01  2381   0.542E+00    0.809E-01
RMM:   3    -0.808373296083E+02   -0.26019E-01   -0.25039E-01  2711   0.223E+00    0.615E-01
RMM:   4    -0.808342375737E+02    0.30920E-02   -0.42111E-02  2616   0.101E+00    0.503E-01
RMM:   5    -0.808313621890E+02    0.28754E-02   -0.97862E-03  2571   0.542E-01    0.285E-01
RMM:   6    -0.808310479999E+02    0.31419E-03   -0.34053E-03  2251   0.409E-01    0.901E-02
RMM:   7    -0.808310638512E+02   -0.15851E-04   -0.15974E-03  2667   0.188E-01    0.269E-02
RMM:   8    -0.808310936692E+02   -0.29818E-04   -0.34488E-04  2363   0.636E-02    0.157E-02
RMM:   9    -0.808311044401E+02   -0.10771E-04   -0.82954E-05  1826   0.483E-02    0.843E-03
RMM:  10    -0.808311086098E+02   -0.41697E-05   -0.24802E-05  1373   0.386E-02
  45 F= -.83908593E+02 E0= -.83900573E+02  d E =-.173783E+00
       N       E                     dE             d eps       ncg     rms          rms(c)
DAV:   1    -0.808048882862E+02    0.26216E-01   -0.40909E+00  2000   0.744E+00    0.691E-01
RMM:   2    -0.808052129593E+02   -0.32467E-03   -0.86755E-02  2566   0.197E+00    0.439E-01
RMM:   3    -0.808059072165E+02   -0.69426E-03   -0.48235E-02  2619   0.866E-01    0.184E-01
RMM:   4    -0.808061391816E+02   -0.23197E-03   -0.87097E-03  2563   0.513E-01    0.190E-01
RMM:   5    -0.808053409547E+02    0.79823E-03   -0.16255E-03  2625   0.190E-01    0.138E-01
RMM:   6    -0.808052390947E+02    0.10186E-03   -0.10673E-03  2254   0.153E-01    0.740E-02
RMM:   7    -0.808052635542E+02   -0.24459E-04   -0.33077E-04  2438   0.776E-02    0.311E-02
RMM:   8    -0.808052425295E+02    0.21025E-04   -0.92995E-05  1843   0.570E-02    0.834E-03
RMM:   9    -0.808052474974E+02   -0.49678E-05   -0.32114E-05  1534   0.315E-02
  46 F= -.83879074E+02 E0= -.83871111E+02  d E =0.295192E-01
       N       E                     dE             d eps       ncg     rms          rms(c)
DAV:   1    -0.808404577564E+02   -0.35215E-01   -0.18500E+00  2000   0.499E+00    0.459E-01
RMM:   2    -0.808401430751E+02    0.31468E-03   -0.40032E-02  2526   0.133E+00    0.301E-01
RMM:   3    -0.808407986588E+02   -0.65558E-03   -0.23555E-02  2643   0.591E-01    0.154E-01
RMM:   4    -0.808410283711E+02   -0.22971E-03   -0.46639E-03  2550   0.366E-01    0.157E-01
RMM:   5    -0.808404577326E+02    0.57064E-03   -0.95212E-04  2443   0.165E-01    0.106E-01
RMM:   6    -0.808404931185E+02   -0.35386E-04   -0.94067E-04  2195   0.154E-01    0.630E-02
RMM:   7    -0.808404182803E+02    0.74838E-04   -0.27759E-04  2097   0.723E-02    0.305E-02
RMM:   8    -0.808404147474E+02    0.35329E-05   -0.22536E-04  1797   0.579E-02    0.131E-02
RMM:   9    -0.808404149099E+02   -0.16245E-06   -0.26197E-05  1405   0.350E-02
  47 F= -.83916699E+02 E0= -.83908693E+02  d E =-.810627E-02
       N       E                     dE             d eps       ncg     rms          rms(c)
DAV:   1    -0.808573813725E+02   -0.16967E-01   -0.61209E-01  2000   0.308E+00    0.240E-01
RMM:   2    -0.808581679943E+02   -0.78662E-03   -0.13619E-02  2373   0.892E-01    0.129E-01
RMM:   3    -0.808585491842E+02   -0.38119E-03   -0.49437E-03  2733   0.305E-01    0.795E-02
RMM:   4    -0.808586885551E+02   -0.13937E-03   -0.10395E-03  2577   0.146E-01    0.636E-02
RMM:   5    -0.808585956681E+02    0.92887E-04   -0.29228E-04  2291   0.928E-02    0.339E-02
RMM:   6    -0.808585676565E+02    0.28012E-04   -0.83594E-05  1734   0.692E-02    0.131E-02
RMM:   7    -0.808585718390E+02   -0.41825E-05   -0.43671E-05  1599   0.344E-02
  48 F= -.83932198E+02 E0= -.83924238E+02  d E =-.154983E-01
       N       E                     dE             d eps       ncg     rms          rms(c)
DAV:   1    -0.808869389169E+02   -0.28371E-01   -0.55424E+00  2000   0.926E+00    0.709E-01
RMM:   2    -0.808948228890E+02   -0.78840E-02   -0.12631E-01  2372   0.273E+00    0.395E-01
RMM:   3    -0.808991427489E+02   -0.43199E-02   -0.45443E-02  2749   0.950E-01    0.275E-01
RMM:   4    -0.808993305211E+02   -0.18777E-03   -0.10767E-02  2714   0.444E-01    0.225E-01
RMM:   5    -0.808982491108E+02    0.10814E-02   -0.24417E-03  2525   0.265E-01    0.906E-02
RMM:   6    -0.808982116594E+02    0.37451E-04   -0.66278E-04  2400   0.163E-01    0.331E-02
RMM:   7    -0.808982317319E+02   -0.20072E-04   -0.30374E-04  2307   0.842E-02    0.134E-02
RMM:   8    -0.808982397781E+02   -0.80463E-05   -0.76502E-05  1774   0.380E-02
  49 F= -.83964154E+02 E0= -.83956252E+02  d E =-.474543E-01
       N       E                     dE             d eps       ncg     rms          rms(c)
DAV:   1    -0.808659022045E+02    0.32330E-01   -0.22278E+01  2000   0.186E+01    0.142E+00
RMM:   2    -0.809082474494E+02   -0.42345E-01   -0.59449E-01  2520   0.553E+00    0.807E-01
RMM:   3    -0.809289693368E+02   -0.20722E-01   -0.17852E-01  2687   0.202E+00    0.664E-01
RMM:   4    -0.809197916024E+02    0.91777E-02   -0.41511E-02  2676   0.939E-01    0.461E-01
RMM:   5    -0.809180071399E+02    0.17845E-02   -0.99986E-03  2576   0.494E-01    0.188E-01
RMM:   6    -0.809179149049E+02    0.92235E-04   -0.25766E-03  2597   0.277E-01    0.564E-02
RMM:   7    -0.809179736415E+02   -0.58737E-04   -0.94590E-04  2618   0.138E-01    0.283E-02
RMM:   8    -0.809179896690E+02   -0.16027E-04   -0.25921E-04  2235   0.677E-02    0.168E-02
RMM:   9    -0.809180042672E+02   -0.14598E-04   -0.91494E-05  1850   0.490E-02    0.947E-03
RMM:  10    -0.809180093774E+02   -0.51102E-05   -0.29295E-05  1483   0.325E-02
  50 F= -.83969565E+02 E0= -.83961650E+02  d E =-.528660E-01
       N       E                     dE             d eps       ncg     rms          rms(c)
DAV:   1    -0.809102500283E+02    0.77542E-02   -0.37672E+00  2000   0.762E+00    0.589E-01
RMM:   2    -0.809166258634E+02   -0.63758E-02   -0.95924E-02  2553   0.219E+00    0.306E-01
RMM:   3    -0.809188625540E+02   -0.22367E-02   -0.28022E-02  2743   0.696E-01    0.207E-01
RMM:   4    -0.809195006210E+02   -0.63807E-03   -0.62698E-03  2679   0.348E-01    0.177E-01
RMM:   5    -0.809188297666E+02    0.67085E-03   -0.17291E-03  2573   0.231E-01    0.871E-02
RMM:   6    -0.809187182730E+02    0.11149E-03   -0.44769E-04  2214   0.150E-01    0.291E-02
RMM:   7    -0.809187363699E+02   -0.18097E-04   -0.27528E-04  2269   0.706E-02    0.124E-02
RMM:   8    -0.809187403658E+02   -0.39959E-05   -0.56377E-05  1640   0.425E-02
  51 F= -.83976075E+02 E0= -.83968165E+02  d E =-.593758E-01
       N       E                     dE             d eps       ncg     rms          rms(c)
DAV:   1    -0.809233361062E+02   -0.45997E-02   -0.30966E-02  2400   0.686E-01    0.518E-02
RMM:   2    -0.809233795761E+02   -0.43470E-04   -0.81718E-04  2431   0.206E-01    0.302E-02
RMM:   3    -0.809234024234E+02   -0.22847E-04   -0.30372E-04  2037   0.716E-02    0.194E-02
RMM:   4    -0.809234098978E+02   -0.74744E-05   -0.61937E-05  1664   0.566E-02
  52 F= -.83980244E+02 E0= -.83972319E+02  d E =-.416923E-02
       N       E                     dE             d eps       ncg     rms          rms(c)
DAV:   1    -0.809347885319E+02   -0.11386E-01   -0.28040E-01  2016   0.206E+00    0.161E-01
RMM:   2    -0.809351903892E+02   -0.40186E-03   -0.72862E-03  2467   0.631E-01    0.921E-02
RMM:   3    -0.809355050707E+02   -0.31468E-03   -0.32716E-03  2685   0.227E-01    0.716E-02
RMM:   4    -0.809354701421E+02    0.34929E-04   -0.64089E-04  2461   0.116E-01    0.595E-02
RMM:   5    -0.809354354876E+02    0.34655E-04   -0.12606E-04  1979   0.675E-02    0.324E-02
RMM:   6    -0.809354365325E+02   -0.10449E-05   -0.42414E-05  1586   0.533E-02
  53 F= -.83990779E+02 E0= -.83982878E+02  d E =-.147042E-01
       N       E                     dE             d eps       ncg     rms          rms(c)
DAV:   1    -0.809484808426E+02   -0.13045E-01   -0.11240E+00  2000   0.411E+00    0.310E-01
RMM:   2    -0.809498732866E+02   -0.13924E-02   -0.26701E-02  2399   0.123E+00    0.182E-01
RMM:   3    -0.809509925853E+02   -0.11193E-02   -0.12460E-02  2719   0.459E-01    0.129E-01
RMM:   4    -0.809510126282E+02   -0.20043E-04   -0.26867E-03  2697   0.229E-01    0.109E-01
RMM:   5    -0.809508242299E+02    0.18840E-03   -0.50045E-04  2420   0.123E-01    0.605E-02
RMM:   6    -0.809508186328E+02    0.55971E-05   -0.15756E-04  2007   0.913E-02    0.220E-02
RMM:   7    -0.809508196563E+02   -0.10235E-05   -0.73297E-05  1724   0.522E-02
  54 F= -.84003219E+02 E0= -.83995309E+02  d E =-.271436E-01
       N       E                     dE             d eps       ncg     rms          rms(c)
DAV:   1    -0.809376152174E+02    0.13203E-01   -0.44916E+00  2000   0.823E+00    0.618E-01
RMM:   2    -0.809434282654E+02   -0.58130E-02   -0.10861E-01  2376   0.255E+00    0.366E-01
RMM:   3    -0.809486782356E+02   -0.52500E-02   -0.54774E-02  2704   0.969E-01    0.284E-01
RMM:   4    -0.809482382272E+02    0.44001E-03   -0.11491E-02  2709   0.471E-01    0.238E-01
RMM:   5    -0.809475649739E+02    0.67325E-03   -0.17854E-03  2522   0.221E-01    0.137E-01
RMM:   6    -0.809475849050E+02   -0.19931E-04   -0.69502E-04  2407   0.163E-01    0.440E-02
RMM:   7    -0.809475730336E+02    0.11871E-04   -0.28738E-04  2246   0.103E-01    0.154E-02
RMM:   8    -0.809475791526E+02   -0.61190E-05   -0.12740E-04  1902   0.544E-02    0.812E-03
RMM:   9    -0.809475827129E+02   -0.35603E-05   -0.33804E-05  1530   0.295E-02
  55 F= -.83994241E+02 E0= -.83986334E+02  d E =-.181661E-01
       N       E                     dE             d eps       ncg     rms          rms(c)
DAV:   1    -0.809499967683E+02   -0.24176E-02   -0.22005E+00  2000   0.578E+00    0.429E-01
RMM:   2    -0.809531847968E+02   -0.31880E-02   -0.54043E-02  2537   0.167E+00    0.245E-01
RMM:   3    -0.809547003476E+02   -0.15156E-02   -0.19940E-02  2726   0.587E-01    0.162E-01
RMM:   4    -0.809550002450E+02   -0.29990E-03   -0.44004E-03  2676   0.298E-01    0.138E-01
RMM:   5    -0.809545831459E+02    0.41710E-03   -0.95488E-04  2511   0.179E-01    0.727E-02
RMM:   6    -0.809545479377E+02    0.35208E-04   -0.27516E-04  2144   0.115E-01    0.281E-02
RMM:   7    -0.809545564405E+02   -0.85028E-05   -0.14966E-04  2000   0.592E-02    0.981E-03
RMM:   8    -0.809545601378E+02   -0.36972E-05   -0.36170E-05  1563   0.350E-02
  56 F= -.84005220E+02 E0= -.83997304E+02  d E =-.291453E-01
       N       E                     dE             d eps       ncg     rms          rms(c)
DAV:   1    -0.809549006873E+02   -0.34425E-03   -0.13892E-04  2840   0.508E-02    0.505E-03
RMM:   2    -0.809549014956E+02   -0.80835E-06   -0.65270E-06  1216   0.166E-02
  57 F= -.84005563E+02 E0= -.83997655E+02  d E =-.342172E-03
       N       E                     dE             d eps       ncg     rms          rms(c)
DAV:   1    -0.809558953713E+02   -0.99468E-03   -0.10301E-03  2384   0.121E-01    0.127E-02
RMM:   2    -0.809559010410E+02   -0.56696E-05   -0.62062E-05  1782   0.437E-02
  58 F= -.84006565E+02 E0= -.83998668E+02  d E =-.134445E-02
       N       E                     dE             d eps       ncg     rms          rms(c)
DAV:   1    -0.809577932126E+02   -0.18978E-02   -0.42609E-03  2224   0.245E-01    0.266E-02
RMM:   2    -0.809578205485E+02   -0.27336E-04   -0.31104E-04  2571   0.914E-02    0.188E-02
RMM:   3    -0.809578093535E+02    0.11195E-04   -0.45477E-05  1617   0.413E-02    0.125E-02
RMM:   4    -0.809578035063E+02    0.58472E-05   -0.10663E-05  1241   0.290E-02
  59 F= -.84008474E+02 E0= -.84000572E+02  d E =-.325328E-02
       N       E                     dE             d eps       ncg     rms          rms(c)
DAV:   1    -0.809612059967E+02   -0.33966E-02   -0.16354E-02  2016   0.475E-01    0.459E-02
RMM:   2    -0.809612594871E+02   -0.53490E-04   -0.87030E-04  2539   0.186E-01    0.241E-02
RMM:   3    -0.809612824786E+02   -0.22992E-04   -0.21830E-04  2185   0.650E-02    0.220E-02
RMM:   4    -0.809612572600E+02    0.25219E-04   -0.45165E-05  1594   0.460E-02    0.103E-02
RMM:   5    -0.809612555031E+02    0.17569E-05   -0.14573E-05  1312   0.256E-02
  60 F= -.84011942E+02 E0= -.84004053E+02  d E =-.672183E-02
       N       E                     dE             d eps       ncg     rms          rms(c)
DAV:   1    -0.809665385954E+02   -0.52813E-02   -0.65193E-02  2000   0.949E-01    0.904E-02
RMM:   2    -0.809667713547E+02   -0.23276E-03   -0.35666E-03  2606   0.356E-01    0.441E-02
RMM:   3    -0.809668572774E+02   -0.85923E-04   -0.73607E-04  2582   0.118E-01    0.438E-02
RMM:   4    -0.809667471558E+02    0.11012E-03   -0.15805E-04  2051   0.679E-02    0.194E-02
RMM:   5    -0.809667414660E+02    0.56898E-05   -0.55224E-05  1637   0.387E-02
  61 F= -.84017477E+02 E0= -.84009620E+02  d E =-.122563E-01
       N       E                     dE             d eps       ncg     rms          rms(c)
DAV:   1    -0.809712244681E+02   -0.44773E-02   -0.26020E-01  2000   0.190E+00    0.182E-01
RMM:   2    -0.809721489890E+02   -0.92452E-03   -0.14301E-02  2607   0.718E-01    0.881E-02
RMM:   3    -0.809724852082E+02   -0.33622E-03   -0.30136E-03  2688   0.236E-01    0.861E-02
RMM:   4    -0.809720829911E+02    0.40222E-03   -0.68013E-04  2530   0.129E-01    0.403E-02
RMM:   5    -0.809720528363E+02    0.30155E-04   -0.21976E-04  2225   0.646E-02    0.195E-02
RMM:   6    -0.809720487330E+02    0.41034E-05   -0.67604E-05  1839   0.452E-02
  62 F= -.84022943E+02 E0= -.84015182E+02  d E =-.177226E-01
       N       E                     dE             d eps       ncg     rms          rms(c)
DAV:   1    -0.809736148192E+02   -0.15620E-02   -0.51226E-02  2528   0.859E-01    0.807E-02
RMM:   2    -0.809736314404E+02   -0.16621E-04   -0.15596E-03  2671   0.234E-01    0.511E-02
RMM:   3    -0.809736635519E+02   -0.32112E-04   -0.58940E-04  2296   0.991E-02    0.331E-02
RMM:   4    -0.809736329724E+02    0.30580E-04   -0.14943E-04  2022   0.673E-02    0.251E-02
RMM:   5    -0.809736247887E+02    0.81837E-05   -0.23971E-05  1440   0.333E-02
  63 F= -.84024504E+02 E0= -.84016745E+02  d E =-.156058E-02
       N       E                     dE             d eps       ncg     rms          rms(c)
DAV:   1    -0.809736476016E+02   -0.14629E-04   -0.62791E-04  2912   0.107E-01    0.165E-02
RMM:   2    -0.809736431220E+02    0.44797E-05   -0.32435E-05  1378   0.325E-02
  64 F= -.84024521E+02 E0= -.84016758E+02  d E =-.157746E-02
       N       E                     dE             d eps       ncg     rms          rms(c)
DAV:   1    -0.809740875416E+02   -0.43994E-03   -0.20828E-03  2336   0.185E-01    0.160E-02
RMM:   2    -0.809740975953E+02   -0.10054E-04   -0.10200E-04  1980   0.598E-02    0.111E-02
RMM:   3    -0.809740953501E+02    0.22453E-05   -0.18421E-05  1269   0.346E-02
  65 F= -.84024922E+02 E0= -.84017173E+02  d E =-.401207E-03
       N       E                     dE             d eps       ncg     rms          rms(c)
DAV:   1    -0.809753148534E+02   -0.12173E-02   -0.18801E-02  2000   0.538E-01    0.410E-02
RMM:   2    -0.809753629829E+02   -0.48129E-04   -0.68887E-04  2666   0.160E-01    0.216E-02
RMM:   3    -0.809753738418E+02   -0.10859E-04   -0.10075E-04  1818   0.488E-02    0.160E-02
RMM:   4    -0.809753707825E+02    0.30592E-05   -0.24130E-05  1359   0.444E-02
  66 F= -.84026046E+02 E0= -.84018302E+02  d E =-.152515E-02
       N       E                     dE             d eps       ncg     rms          rms(c)
DAV:   1    -0.809773367528E+02   -0.19629E-02   -0.74641E-02  2000   0.107E+00    0.781E-02
RMM:   2    -0.809775220567E+02   -0.18530E-03   -0.24937E-03  2649   0.317E-01    0.405E-02
RMM:   3    -0.809775919846E+02   -0.69928E-04   -0.51896E-04  2422   0.941E-02    0.344E-02
RMM:   4    -0.809775573858E+02    0.34599E-04   -0.12359E-04  1915   0.673E-02    0.221E-02
RMM:   5    -0.809775551748E+02    0.22110E-05   -0.29224E-05  1452   0.369E-02
  67 F= -.84027934E+02 E0= -.84020185E+02  d E =-.341333E-02
       N       E                     dE             d eps       ncg     rms          rms(c)
DAV:   1    -0.809795938452E+02   -0.20365E-02   -0.29815E-01  2000   0.214E+00    0.153E-01
RMM:   2    -0.809802666023E+02   -0.67276E-03   -0.91699E-03  2595   0.653E-01    0.745E-02
RMM:   3    -0.809805639565E+02   -0.29735E-03   -0.26141E-03  2685   0.204E-01    0.582E-02
RMM:   4    -0.809804994157E+02    0.64541E-04   -0.55258E-04  2462   0.102E-01    0.440E-02
RMM:   5    -0.809804854333E+02    0.13982E-04   -0.10670E-04  1940   0.525E-02    0.163E-02
RMM:   6    -0.809804879655E+02   -0.25322E-05   -0.30493E-05  1400   0.440E-02
  68 F= -.84030301E+02 E0= -.84022568E+02  d E =-.578060E-02
       N       E                     dE             d eps       ncg     rms          rms(c)
DAV:   1    -0.809772583550E+02    0.32271E-02   -0.11963E+00  2000   0.427E+00    0.309E-01
RMM:   2    -0.809799133633E+02   -0.26550E-02   -0.36441E-02  2579   0.127E+00    0.154E-01
RMM:   3    -0.809807938634E+02   -0.88050E-03   -0.95835E-03  2726   0.376E-01    0.104E-01
RMM:   4    -0.809808667710E+02   -0.72908E-04   -0.21586E-03  2715   0.186E-01    0.906E-02
RMM:   5    -0.809807086221E+02    0.15815E-03   -0.50590E-04  2453   0.117E-01    0.358E-02
RMM:   6    -0.809807123322E+02   -0.37101E-05   -0.16270E-04  2092   0.735E-02    0.115E-02
RMM:   7    -0.809807134149E+02   -0.10827E-05   -0.43519E-05  1581   0.418E-02
  69 F= -.84029501E+02 E0= -.84021773E+02  d E =-.498067E-02
       N       E                     dE             d eps       ncg     rms          rms(c)
DAV:   1    -0.809802638711E+02    0.44846E-03   -0.43548E-01  2000   0.257E+00    0.185E-01
RMM:   2    -0.809811832431E+02   -0.91937E-03   -0.12680E-02  2571   0.749E-01    0.910E-02
RMM:   3    -0.809815573912E+02   -0.37415E-03   -0.34380E-03  2665   0.221E-01    0.653E-02
RMM:   4    -0.809814943998E+02    0.62991E-04   -0.75256E-04  2524   0.122E-01    0.513E-02
RMM:   5    -0.809814699276E+02    0.24472E-04   -0.14896E-04  2149   0.634E-02    0.139E-02
RMM:   6    -0.809814718144E+02   -0.18868E-05   -0.34696E-05  1465   0.411E-02
  70 F= -.84030862E+02 E0= -.84023127E+02  d E =-.634143E-02
       N       E                     dE             d eps       ncg     rms          rms(c)
DAV:   1    -0.809812400429E+02    0.22988E-03   -0.29854E-01  2000   0.199E+00    0.168E-01
RMM:   2    -0.809814338839E+02   -0.19384E-03   -0.68972E-03  2602   0.520E-01    0.108E-01
RMM:   3    -0.809815858274E+02   -0.15194E-03   -0.29340E-03  2539   0.207E-01    0.637E-02
RMM:   4    -0.809815683485E+02    0.17479E-04   -0.68095E-04  2420   0.133E-01    0.591E-02
RMM:   5    -0.809815070585E+02    0.61290E-04   -0.90167E-05  1823   0.508E-02    0.342E-02
RMM:   6    -0.809815125422E+02   -0.54837E-05   -0.59283E-05  1613   0.462E-02
  71 F= -.84030425E+02 E0= -.84022653E+02  d E =0.436730E-03
       N       E                     dE             d eps       ncg     rms          rms(c)
DAV:   1    -0.809824626432E+02   -0.95558E-03   -0.91823E-02  2000   0.111E+00    0.907E-02
RMM:   2    -0.809825512529E+02   -0.88610E-04   -0.22261E-03  2626   0.293E-01    0.598E-02
RMM:   3    -0.809825841933E+02   -0.32940E-04   -0.81993E-04  2172   0.109E-01    0.308E-02
RMM:   4    -0.809826001144E+02   -0.15921E-04   -0.18294E-04  2036   0.761E-02    0.315E-02
RMM:   5    -0.809825744752E+02    0.25639E-04   -0.21867E-05  1375   0.345E-02    0.177E-02
RMM:   6    -0.809825768293E+02   -0.23542E-05   -0.13180E-05  1246   0.298E-02
  72 F= -.84031753E+02 E0= -.84024002E+02  d E =-.890993E-03
       N       E                     dE             d eps       ncg     rms          rms(c)
DAV:   1    -0.809837644856E+02   -0.11900E-02   -0.15566E-02  2080   0.465E-01    0.337E-02
RMM:   2    -0.809837889734E+02   -0.24488E-04   -0.34829E-04  2349   0.134E-01    0.182E-02
RMM:   3    -0.809838038828E+02   -0.14909E-04   -0.12109E-04  1557   0.497E-02    0.129E-02
RMM:   4    -0.809838018198E+02    0.20630E-05   -0.29253E-05  1328   0.467E-02
  73 F= -.84032819E+02 E0= -.84025054E+02  d E =-.106564E-02
       N       E                     dE             d eps       ncg     rms          rms(c)
DAV:   1    -0.809868452632E+02   -0.30414E-02   -0.14016E-01  2000   0.139E+00    0.994E-02
RMM:   2    -0.809870667487E+02   -0.22149E-03   -0.29921E-03  2508   0.377E-01    0.536E-02
RMM:   3    -0.809872095667E+02   -0.14282E-03   -0.11123E-03  2506   0.128E-01    0.420E-02
RMM:   4    -0.809871678833E+02    0.41683E-04   -0.20638E-04  2055   0.803E-02    0.295E-02
RMM:   5    -0.809871694737E+02   -0.15904E-05   -0.42446E-05  1545   0.411E-02
  74 F= -.84035714E+02 E0= -.84027914E+02  d E =-.396071E-02
       N       E                     dE             d eps       ncg     rms          rms(c)
DAV:   1    -0.809912849817E+02   -0.41171E-02   -0.56054E-01  2000   0.278E+00    0.199E-01
RMM:   2    -0.809921278752E+02   -0.84289E-03   -0.11338E-02  2501   0.731E-01    0.106E-01
RMM:   3    -0.809927261788E+02   -0.59830E-03   -0.44963E-03  2696   0.258E-01    0.863E-02
RMM:   4    -0.809925291366E+02    0.19704E-03   -0.88243E-04  2457   0.140E-01    0.595E-02
RMM:   5    -0.809925338446E+02   -0.47080E-05   -0.17927E-04  2094   0.559E-02    0.146E-02
RMM:   6    -0.809925332413E+02    0.60338E-06   -0.39720E-05  1445   0.426E-02
  75 F= -.84040157E+02 E0= -.84032290E+02  d E =-.840404E-02
       N       E                     dE             d eps       ncg     rms          rms(c)
DAV:   1    -0.809928369040E+02   -0.30306E-03   -0.22496E+00  2000   0.555E+00    0.401E-01
RMM:   2    -0.809962382188E+02   -0.34013E-02   -0.45027E-02  2471   0.146E+00    0.214E-01
RMM:   3    -0.809987871933E+02   -0.25490E-02   -0.19473E-02  2720   0.535E-01    0.181E-01
RMM:   4    -0.809978997281E+02    0.88747E-03   -0.36295E-03  2539   0.273E-01    0.125E-01
RMM:   5    -0.809979168029E+02   -0.17075E-04   -0.84475E-04  2648   0.122E-01    0.390E-02
RMM:   6    -0.809979144947E+02    0.23082E-05   -0.21522E-04  2152   0.860E-02    0.167E-02
RMM:   7    -0.809979182221E+02   -0.37274E-05   -0.60016E-05  1631   0.430E-02
  76 F= -.84043799E+02 E0= -.84035802E+02  d E =-.120464E-01
       N       E                     dE             d eps       ncg     rms          rms(c)
DAV:   1    -0.809973794049E+02    0.53509E-03   -0.14132E-01  2000   0.132E+00    0.135E-01
RMM:   2    -0.809973291357E+02    0.50269E-04   -0.31288E-03  2734   0.340E-01    0.855E-02
RMM:   3    -0.809974031475E+02   -0.74012E-04   -0.18185E-03  2405   0.161E-01    0.460E-02
RMM:   4    -0.809973400254E+02    0.63122E-04   -0.33207E-04  2116   0.102E-01    0.387E-02
RMM:   5    -0.809973135800E+02    0.26445E-04   -0.77532E-05  1785   0.448E-02    0.269E-02
RMM:   6    -0.809973255160E+02   -0.11936E-04   -0.10748E-04  1614   0.509E-02    0.169E-02
RMM:   7    -0.809973200267E+02    0.54893E-05   -0.14386E-05  1348   0.273E-02
  77 F= -.84042943E+02 E0= -.84034963E+02  d E =0.856565E-03
       N       E                     dE             d eps       ncg     rms          rms(c)
DAV:   1    -0.809985696769E+02   -0.12442E-02   -0.55396E-02  2112   0.822E-01    0.851E-02
RMM:   2    -0.809985402338E+02    0.29443E-04   -0.11795E-03  2543   0.208E-01    0.542E-02
RMM:   3    -0.809985857799E+02   -0.45546E-04   -0.67956E-04  2206   0.104E-01    0.326E-02
RMM:   4    -0.809985452701E+02    0.40510E-04   -0.15371E-04  1877   0.728E-02    0.246E-02
RMM:   5    -0.809985363900E+02    0.88801E-05   -0.34919E-05  1567   0.341E-02
  78 F= -.84044320E+02 E0= -.84036335E+02  d E =-.520415E-03
       N       E                     dE             d eps       ncg     rms          rms(c)
DAV:   1    -0.810001324318E+02   -0.15872E-02   -0.22728E-02  2000   0.582E-01    0.451E-02
RMM:   2    -0.810001934572E+02   -0.61025E-04   -0.77558E-04  2381   0.206E-01    0.289E-02
RMM:   3    -0.810002205437E+02   -0.27086E-04   -0.28378E-04  2231   0.772E-02    0.246E-02
RMM:   4    -0.810002040608E+02    0.16483E-04   -0.49137E-05  1505   0.531E-02    0.149E-02
RMM:   5    -0.810002042371E+02   -0.17631E-06   -0.14368E-05  1248   0.280E-02
  79 F= -.84045669E+02 E0= -.84037695E+02  d E =-.134976E-02
       N       E                     dE             d eps       ncg     rms          rms(c)
DAV:   1    -0.810035125841E+02   -0.33085E-02   -0.20492E-01  2000   0.174E+00    0.133E-01
RMM:   2    -0.810039384584E+02   -0.42587E-03   -0.57373E-03  2423   0.569E-01    0.765E-02
RMM:   3    -0.810042516923E+02   -0.31323E-03   -0.25656E-03  2680   0.221E-01    0.701E-02
RMM:   4    -0.810040851185E+02    0.16657E-03   -0.44567E-04  2332   0.104E-01    0.437E-02
RMM:   5    -0.810040826926E+02    0.24259E-05   -0.11897E-04  1984   0.588E-02    0.233E-02
RMM:   6    -0.810040833106E+02   -0.61797E-06   -0.37137E-05  1507   0.487E-02
  80 F= -.84048605E+02 E0= -.84040716E+02  d E =-.428534E-02
       N       E                     dE             d eps       ncg     rms          rms(c)
DAV:   1    -0.810045083020E+02   -0.42561E-03   -0.82284E-01  2000   0.349E+00    0.269E-01
RMM:   2    -0.810062140345E+02   -0.17057E-02   -0.23032E-02  2409   0.112E+00    0.158E-01
RMM:   3    -0.810073332613E+02   -0.11192E-02   -0.97521E-03  2720   0.420E-01    0.137E-01
RMM:   4    -0.810067617640E+02    0.57150E-03   -0.16906E-03  2519   0.193E-01    0.912E-02
RMM:   5    -0.810067294047E+02    0.32359E-04   -0.48720E-04  2515   0.115E-01    0.517E-02
RMM:   6    -0.810067234080E+02    0.59967E-05   -0.15454E-04  2086   0.863E-02    0.116E-02
RMM:   7    -0.810067257887E+02   -0.23807E-05   -0.51145E-05  1621   0.371E-02
  81 F= -.84049409E+02 E0= -.84041659E+02  d E =-.508916E-02
       N       E                     dE             d eps       ncg     rms          rms(c)
DAV:   1    -0.810062312129E+02    0.49220E-03   -0.11952E-01  2000   0.133E+00    0.101E-01
RMM:   2    -0.810064667149E+02   -0.23550E-03   -0.31810E-03  2390   0.415E-01    0.592E-02
RMM:   3    -0.810066370606E+02   -0.17035E-03   -0.13876E-03  2648   0.163E-01    0.531E-02
RMM:   4    -0.810065335958E+02    0.10346E-03   -0.20980E-04  2148   0.758E-02    0.320E-02
RMM:   5    -0.810065318389E+02    0.17568E-05   -0.58732E-05  1676   0.471E-02
  82 F= -.84049908E+02 E0= -.84042114E+02  d E =-.558864E-02
       N       E                     dE             d eps       ncg     rms          rms(c)
DAV:   1    -0.810057043197E+02    0.82928E-03   -0.27330E-01  2000   0.188E+00    0.150E-01
RMM:   2    -0.810058799432E+02   -0.17562E-03   -0.54218E-03  2450   0.526E-01    0.979E-02
RMM:   3    -0.810061699702E+02   -0.29003E-03   -0.30281E-03  2656   0.230E-01    0.708E-02
RMM:   4    -0.810060345239E+02    0.13545E-03   -0.59639E-04  2279   0.126E-01    0.475E-02
RMM:   5    -0.810060149125E+02    0.19611E-04   -0.14046E-04  1978   0.595E-02    0.325E-02
RMM:   6    -0.810060187389E+02   -0.38264E-05   -0.54382E-05  1662   0.565E-02
  83 F= -.84048560E+02 E0= -.84040801E+02  d E =0.134817E-02
       N       E                     dE             d eps       ncg     rms          rms(c)
DAV:   1    -0.810068072750E+02   -0.79236E-03   -0.14496E-01  2000   0.137E+00    0.109E-01
RMM:   2    -0.810069289234E+02   -0.12165E-03   -0.31773E-03  2518   0.363E-01    0.710E-02
RMM:   3    -0.810070614443E+02   -0.13252E-03   -0.13324E-03  2525   0.148E-01    0.530E-02
RMM:   4    -0.810069901173E+02    0.71327E-04   -0.24685E-04  2029   0.853E-02    0.364E-02
RMM:   5    -0.810069836134E+02    0.65039E-05   -0.63554E-05  1714   0.446E-02
  84 F= -.84050133E+02 E0= -.84042348E+02  d E =-.224872E-03
       N       E                     dE             d eps       ncg     rms          rms(c)
DAV:   1    -0.810084635322E+02   -0.14734E-02   -0.13278E-01  2000   0.129E+00    0.956E-02
RMM:   2    -0.810086077043E+02   -0.14417E-03   -0.21441E-03  2544   0.314E-01    0.510E-02
RMM:   3    -0.810087310782E+02   -0.12337E-03   -0.10704E-03  2360   0.126E-01    0.388E-02
RMM:   4    -0.810087078180E+02    0.23260E-04   -0.16851E-04  1844   0.740E-02    0.309E-02
RMM:   5    -0.810087077562E+02    0.61798E-07   -0.43232E-05  1573   0.396E-02
  85 F= -.84051158E+02 E0= -.84043364E+02  d E =-.102503E-02
       N       E                     dE             d eps       ncg     rms          rms(c)
DAV:   1    -0.810106660831E+02   -0.19583E-02   -0.11921E+00  2000   0.386E+00    0.290E-01
RMM:   2    -0.810122019423E+02   -0.15359E-02   -0.21588E-02  2497   0.973E-01    0.154E-01
RMM:   3    -0.810131005272E+02   -0.89858E-03   -0.93651E-03  2725   0.340E-01    0.106E-01
RMM:   4    -0.810132247903E+02   -0.12426E-03   -0.13796E-03  2457   0.176E-01    0.922E-02
RMM:   5    -0.810131192754E+02    0.10551E-03   -0.36652E-04  2345   0.105E-01    0.424E-02
RMM:   6    -0.810130990448E+02    0.20231E-04   -0.10262E-04  1836   0.816E-02    0.128E-02
RMM:   7    -0.810131012616E+02   -0.22168E-05   -0.49142E-05  1661   0.393E-02
  86 F= -.84053465E+02 E0= -.84045744E+02  d E =-.333147E-02
       N       E                     dE             d eps       ncg     rms          rms(c)
DAV:   1    -0.810080436767E+02    0.50554E-02   -0.48033E+00  2000   0.773E+00    0.582E-01
RMM:   2    -0.810141038939E+02   -0.60602E-02   -0.85182E-02  2446   0.196E+00    0.311E-01
RMM:   3    -0.810177703919E+02   -0.36665E-02   -0.38546E-02  2735   0.706E-01    0.219E-01
RMM:   4    -0.810181651210E+02   -0.39473E-03   -0.60546E-03  2474   0.353E-01    0.194E-01
RMM:   5    -0.810177809637E+02    0.38416E-03   -0.15972E-03  2600   0.209E-01    0.943E-02
RMM:   6    -0.810177052614E+02    0.75702E-04   -0.49972E-04  2158   0.166E-01    0.262E-02
RMM:   7    -0.810177112410E+02   -0.59796E-05   -0.22673E-04  2221   0.685E-02    0.139E-02
RMM:   8    -0.810177161507E+02   -0.49097E-05   -0.39380E-05  1538   0.341E-02
  87 F= -.84053951E+02 E0= -.84046337E+02  d E =-.381817E-02
       N       E                     dE             d eps       ncg     rms          rms(c)
DAV:   1    -0.810143893631E+02    0.33219E-02   -0.10372E+00  2000   0.359E+00    0.263E-01
RMM:   2    -0.810157185468E+02   -0.13292E-02   -0.18297E-02  2502   0.885E-01    0.145E-01
RMM:   3    -0.810164434977E+02   -0.72495E-03   -0.72330E-03  2739   0.315E-01    0.102E-01
RMM:   4    -0.810164343947E+02    0.91030E-05   -0.10831E-03  2361   0.162E-01    0.841E-02
RMM:   5    -0.810163678987E+02    0.66496E-04   -0.37542E-04  2365   0.107E-01    0.386E-02
RMM:   6    -0.810163468825E+02    0.21016E-04   -0.10464E-04  1798   0.811E-02    0.117E-02
RMM:   7    -0.810163490629E+02   -0.21804E-05   -0.46600E-05  1610   0.374E-02
  88 F= -.84054498E+02 E0= -.84046823E+02  d E =-.436521E-02
       N       E                     dE             d eps       ncg     rms          rms(c)
DAV:   1    -0.810171050880E+02   -0.75821E-03   -0.55172E-02  2000   0.823E-01    0.619E-02
RMM:   2    -0.810171520266E+02   -0.46939E-04   -0.85790E-04  2527   0.200E-01    0.342E-02
RMM:   3    -0.810171839776E+02   -0.31951E-04   -0.37273E-04  1645   0.666E-02    0.143E-02
RMM:   4    -0.810171904880E+02   -0.65104E-05   -0.64787E-05  1441   0.504E-02
  89 F= -.84054935E+02 E0= -.84047273E+02  d E =-.436491E-03
       N       E                     dE             d eps       ncg     rms          rms(c)
DAV:   1    -0.810177244234E+02   -0.54045E-03   -0.61347E-02  2000   0.866E-01    0.667E-02
RMM:   2    -0.810177772686E+02   -0.52845E-04   -0.95090E-04  2475   0.213E-01    0.377E-02
RMM:   3    -0.810178675456E+02   -0.90277E-04   -0.56164E-04  2205   0.962E-02    0.333E-02
RMM:   4    -0.810178202761E+02    0.47270E-04   -0.11057E-04  1749   0.670E-02    0.158E-02
RMM:   5    -0.810178238340E+02   -0.35580E-05   -0.33750E-05  1491   0.299E-02
  90 F= -.84055143E+02 E0= -.84047489E+02  d E =-.644370E-03
[...]
RMM:   5    -0.810425128716E+02    0.78527E-03   -0.11576E-03  2294   0.197E-01    0.505E-02
RMM:   6    -0.810425092754E+02    0.35961E-05   -0.53839E-04  2398   0.108E-01    0.225E-02
RMM:   7    -0.810425059248E+02    0.33506E-05   -0.93095E-05  1800   0.579E-02
 123 F= -.84065001E+02 E0= -.84057491E+02  d E =-.320930E-02
       N       E                     dE             d eps       ncg     rms          rms(c)
DAV:   1    -0.810429786696E+02   -0.46939E-03   -0.38188E-01  2000   0.201E+00    0.148E-01
RMM:   2    -0.810432355248E+02   -0.25686E-03   -0.48828E-03  2607   0.426E-01    0.876E-02
RMM:   3    -0.810434819280E+02   -0.24640E-03   -0.23507E-03  2453   0.167E-01    0.417E-02
RMM:   4    -0.810434509124E+02    0.31016E-04   -0.47273E-04  2127   0.977E-02    0.305E-02
RMM:   5    -0.810434438773E+02    0.70351E-05   -0.70744E-05  1629   0.410E-02
 124 F= -.84065504E+02 E0= -.84058009E+02  d E =-.503053E-03
       N       E                     dE             d eps       ncg     rms          rms(c)
DAV:   1    -0.810433637553E+02    0.87157E-04   -0.20911E-02  2304   0.477E-01    0.347E-02
RMM:   2    -0.810433910236E+02   -0.27268E-04   -0.38867E-04  1851   0.114E-01    0.203E-02
RMM:   3    -0.810434136958E+02   -0.22672E-04   -0.11796E-04  1578   0.567E-02    0.166E-02
RMM:   4    -0.810434055966E+02    0.80992E-05   -0.24003E-05  1341   0.400E-02
 125 F= -.84065568E+02 E0= -.84058074E+02  d E =-.566780E-03
       N       E                     dE             d eps       ncg     rms          rms(c)
DAV:   1    -0.810437986465E+02   -0.38495E-03   -0.48691E-02  2000   0.725E-01    0.525E-02
RMM:   2    -0.810438532979E+02   -0.54651E-04   -0.73616E-04  2253   0.167E-01    0.280E-02
RMM:   3    -0.810438874776E+02   -0.34180E-04   -0.29001E-04  1712   0.627E-02    0.203E-02
RMM:   4    -0.810438857677E+02    0.17099E-05   -0.60168E-05  1454   0.515E-02
 126 F= -.84065923E+02 E0= -.84058446E+02  d E =-.355065E-03
       N       E                     dE             d eps       ncg     rms          rms(c)
DAV:   1    -0.810443082259E+02   -0.42075E-03   -0.43817E-01  2000   0.217E+00    0.164E-01
RMM:   2    -0.810448152116E+02   -0.50699E-03   -0.69860E-03  2659   0.479E-01    0.880E-02
RMM:   3    -0.810451175875E+02   -0.30238E-03   -0.26556E-03  2523   0.165E-01    0.648E-02
RMM:   4    -0.810450863028E+02    0.31285E-04   -0.42885E-04  2238   0.956E-02    0.544E-02
RMM:   5    -0.810450740577E+02    0.12245E-04   -0.86647E-05  1769   0.601E-02    0.151E-02
RMM:   6    -0.810450736168E+02    0.44090E-06   -0.26467E-05  1406   0.484E-02
 127 F= -.84066738E+02 E0= -.84059271E+02  d E =-.116996E-02
       N       E                     dE             d eps       ncg     rms          rms(c)
DAV:   1    -0.810432669568E+02    0.18071E-02   -0.17623E+00  2000   0.435E+00    0.331E-01
RMM:   2    -0.810453116540E+02   -0.20447E-02   -0.27443E-02  2618   0.962E-01    0.176E-01
RMM:   3    -0.810464839864E+02   -0.11723E-02   -0.10111E-02  2693   0.348E-01    0.134E-01
RMM:   4    -0.810462753935E+02    0.20859E-03   -0.18633E-03  2465   0.196E-01    0.110E-01
RMM:   5    -0.810462444012E+02    0.30992E-04   -0.48272E-04  2383   0.116E-01    0.373E-02
RMM:   6    -0.810462259807E+02    0.18421E-04   -0.12140E-04  1848   0.844E-02    0.125E-02
RMM:   7    -0.810462278446E+02   -0.18639E-05   -0.51804E-05  1626   0.422E-02
 128 F= -.84067156E+02 E0= -.84059718E+02  d E =-.158824E-02
       N       E                     dE             d eps       ncg     rms          rms(c)
DAV:   1    -0.810458025552E+02    0.42343E-03   -0.16301E-01  2000   0.132E+00    0.984E-02
RMM:   2    -0.810459778103E+02   -0.17526E-03   -0.23492E-03  2632   0.288E-01    0.524E-02
RMM:   3    -0.810460975043E+02   -0.11969E-03   -0.95627E-04  2203   0.110E-01    0.396E-02
RMM:   4    -0.810460641096E+02    0.33395E-04   -0.17079E-04  1812   0.687E-02    0.299E-02
RMM:   5    -0.810460662376E+02   -0.21281E-05   -0.36373E-05  1470   0.393E-02
 129 F= -.84067217E+02 E0= -.84059773E+02  d E =-.164944E-02
       N       E                     dE             d eps       ncg     rms          rms(c)
DAV:   1    -0.810461897502E+02   -0.12564E-03   -0.15917E-01  2000   0.131E+00    0.944E-02
RMM:   2    -0.810463354493E+02   -0.14570E-03   -0.23702E-03  2584   0.301E-01    0.564E-02
RMM:   3    -0.810465098336E+02   -0.17438E-03   -0.11241E-03  2337   0.128E-01    0.450E-02
RMM:   4    -0.810464196266E+02    0.90207E-04   -0.19800E-04  1920   0.756E-02    0.213E-02
RMM:   5    -0.810464220512E+02   -0.24246E-05   -0.49797E-05  1567   0.384E-02
 130 F= -.84067384E+02 E0= -.84059931E+02  d E =-.166209E-03
       N       E                     dE             d eps       ncg     rms          rms(c)
DAV:   1    -0.810463717934E+02    0.47833E-04   -0.14094E-02  2096   0.394E-01    0.280E-02
RMM:   2    -0.810463901521E+02   -0.18359E-04   -0.25987E-04  1700   0.945E-02    0.170E-02
RMM:   3    -0.810464057049E+02   -0.15553E-04   -0.80340E-05  1561   0.510E-02    0.153E-02
RMM:   4    -0.810463967146E+02    0.89902E-05   -0.17746E-05  1301   0.371E-02
 131 F= -.84067415E+02 E0= -.84059965E+02  d E =-.197307E-03
       N       E                     dE             d eps       ncg     rms          rms(c)
DAV:   1    -0.810466062243E+02   -0.20052E-03   -0.36834E-02  2000   0.628E-01    0.455E-02
RMM:   2    -0.810466464803E+02   -0.40256E-04   -0.55249E-04  2078   0.142E-01    0.242E-02
RMM:   3    -0.810466742930E+02   -0.27813E-04   -0.20933E-04  1612   0.589E-02    0.191E-02
RMM:   4    -0.810466684318E+02    0.58612E-05   -0.47298E-05  1371   0.474E-02
 132 F= -.84067615E+02 E0= -.84060174E+02  d E =-.200470E-03
       N       E                     dE             d eps       ncg     rms          rms(c)
DAV:   1    -0.810467348329E+02   -0.60540E-04   -0.33136E-01  2000   0.189E+00    0.138E-01
RMM:   2    -0.810471367349E+02   -0.40190E-03   -0.54075E-03  2658   0.417E-01    0.753E-02
RMM:   3    -0.810473462668E+02   -0.20953E-03   -0.18210E-03  2449   0.141E-01    0.549E-02
RMM:   4    -0.810473339813E+02    0.12286E-04   -0.33023E-04  2150   0.851E-02    0.466E-02
RMM:   5    -0.810473203259E+02    0.13655E-04   -0.66881E-05  1663   0.563E-02    0.135E-02
RMM:   6    -0.810473202516E+02    0.74304E-07   -0.21481E-05  1339   0.433E-02
 133 F= -.84068054E+02 E0= -.84060612E+02  d E =-.638863E-03
       N       E                     dE             d eps       ncg     rms          rms(c)
DAV:   1    -0.810455894092E+02    0.17309E-02   -0.13326E+00  2000   0.377E+00    0.278E-01
RMM:   2    -0.810471633891E+02   -0.15740E-02   -0.20760E-02  2639   0.829E-01    0.150E-01
RMM:   3    -0.810480539594E+02   -0.89057E-03   -0.72496E-03  2697   0.301E-01    0.118E-01
RMM:   4    -0.810478429962E+02    0.21096E-03   -0.14527E-03  2440   0.173E-01    0.942E-02
RMM:   5    -0.810478324233E+02    0.10573E-04   -0.34551E-04  2243   0.969E-02    0.307E-02
RMM:   6    -0.810478246342E+02    0.77892E-05   -0.75055E-05  1709   0.669E-02
 134 F= -.84068133E+02 E0= -.84060706E+02  d E =-.717858E-03
       N       E                     dE             d eps       ncg     rms          rms(c)
DAV:   1    -0.810473423642E+02    0.49006E-03   -0.22973E-01  2000   0.156E+00    0.112E-01
RMM:   2    -0.810476561962E+02   -0.31383E-03   -0.39118E-03  2696   0.335E-01    0.603E-02
RMM:   3    -0.810478111149E+02   -0.15492E-03   -0.12228E-03  2341   0.123E-01    0.491E-02
RMM:   4    -0.810477539724E+02    0.57143E-04   -0.19638E-04  1901   0.759E-02    0.358E-02
RMM:   5    -0.810477552994E+02   -0.13270E-05   -0.52113E-05  1568   0.421E-02
 135 F= -.84068240E+02 E0= -.84060802E+02  d E =-.825355E-03
       N       E                     dE             d eps       ncg     rms          rms(c)
DAV:   1    -0.810479032655E+02   -0.14929E-03   -0.54876E-02  2000   0.763E-01    0.557E-02
RMM:   2    -0.810479676097E+02   -0.64344E-04   -0.90896E-04  2274   0.170E-01    0.317E-02
RMM:   3    -0.810480122459E+02   -0.44636E-04   -0.29260E-04  1890   0.707E-02    0.244E-02
RMM:   4    -0.810479915020E+02    0.20744E-04   -0.62525E-05  1538   0.530E-02    0.130E-02
RMM:   5    -0.810479927603E+02   -0.12583E-05   -0.12741E-05  1281   0.255E-02
 136 F= -.84068400E+02 E0= -.84060957E+02  d E =-.159558E-03
       N       E                     dE             d eps       ncg     rms          rms(c)
DAV:   1    -0.810480250580E+02   -0.33556E-04   -0.24833E-02  2000   0.515E-01    0.371E-02
RMM:   2    -0.810480556025E+02   -0.30545E-04   -0.43313E-04  1924   0.123E-01    0.212E-02
RMM:   3    -0.810480706280E+02   -0.15026E-04   -0.13432E-04  1492   0.511E-02    0.119E-02
RMM:   4    -0.810480727082E+02   -0.20802E-05   -0.27869E-05  1364   0.394E-02
 137 F= -.84068427E+02 E0= -.84060990E+02  d E =-.186776E-03
       N       E                     dE             d eps       ncg     rms          rms(c)
DAV:   1    -0.810482286778E+02   -0.15805E-03   -0.58887E-02  2000   0.787E-01    0.569E-02
RMM:   2    -0.810483103759E+02   -0.81698E-04   -0.10640E-03  2360   0.184E-01    0.315E-02
RMM:   3    -0.810483469535E+02   -0.36578E-04   -0.34911E-04  1631   0.658E-02    0.212E-02
RMM:   4    -0.810483567448E+02   -0.97913E-05   -0.69734E-05  1573   0.537E-02
 138 F= -.84068636E+02 E0= -.84061200E+02  d E =-.209429E-03
       N       E                     dE             d eps       ncg     rms          rms(c)
DAV:   1    -0.810480936389E+02    0.25331E-03   -0.53153E-01  2000   0.235E+00    0.173E-01
RMM:   2    -0.810487205208E+02   -0.62688E-03   -0.82950E-03  2621   0.525E-01    0.926E-02
RMM:   3    -0.810490154937E+02   -0.29497E-03   -0.29784E-03  2467   0.173E-01    0.620E-02
RMM:   4    -0.810491008253E+02   -0.85332E-04   -0.58869E-04  2305   0.107E-01    0.579E-02
RMM:   5    -0.810490333809E+02    0.67444E-04   -0.11746E-04  1804   0.720E-02    0.180E-02
RMM:   6    -0.810490352819E+02   -0.19010E-05   -0.42504E-05  1556   0.472E-02
 139 F= -.84069089E+02 E0= -.84061614E+02  d E =-.662166E-03
       N       E                     dE             d eps       ncg     rms          rms(c)
DAV:   1    -0.810460336056E+02    0.29998E-02   -0.21385E+00  2000   0.470E+00    0.344E-01
RMM:   2    -0.810484832188E+02   -0.24496E-02   -0.32034E-02  2554   0.103E+00    0.185E-01
RMM:   3    -0.810495914819E+02   -0.11083E-02   -0.11377E-02  2713   0.359E-01    0.123E-01
RMM:   4    -0.810498696130E+02   -0.27813E-03   -0.23784E-03  2580   0.206E-01    0.115E-01
RMM:   5    -0.810496205667E+02    0.24905E-03   -0.46562E-04  2236   0.130E-01    0.384E-02
RMM:   6    -0.810496145300E+02    0.60367E-05   -0.12885E-04  1887   0.723E-02    0.110E-02
RMM:   7    -0.810496190110E+02   -0.44810E-05   -0.47516E-05  1577   0.380E-02
 140 F= -.84069212E+02 E0= -.84061703E+02  d E =-.785604E-03
       N       E                     dE             d eps       ncg     rms          rms(c)
DAV:   1    -0.810488801171E+02    0.73441E-03   -0.38958E-01  2000   0.200E+00    0.143E-01
RMM:   2    -0.810493446361E+02   -0.46452E-03   -0.59008E-03  2613   0.435E-01    0.787E-02
RMM:   3    -0.810495069845E+02   -0.16235E-03   -0.17678E-03  2325   0.141E-01    0.488E-02
RMM:   4    -0.810495696456E+02   -0.62661E-04   -0.42506E-04  2196   0.911E-02    0.459E-02
RMM:   5    -0.810495110418E+02    0.58604E-04   -0.71691E-05  1702   0.608E-02    0.142E-02
RMM:   6    -0.810495116237E+02   -0.58185E-06   -0.25073E-05  1419   0.395E-02
 141 F= -.84069303E+02 E0= -.84061810E+02  d E =-.876354E-03
       N       E                     dE             d eps       ncg     rms          rms(c)
DAV:   1    -0.810496415933E+02   -0.13055E-03   -0.20164E-01  2000   0.144E+00    0.104E-01
RMM:   2    -0.810498326940E+02   -0.19110E-03   -0.27889E-03  2596   0.316E-01    0.577E-02
RMM:   3    -0.810499293328E+02   -0.96639E-04   -0.10020E-03  2152   0.107E-01    0.283E-02
RMM:   4    -0.810499631486E+02   -0.33816E-04   -0.21399E-04  1973   0.719E-02    0.271E-02
RMM:   5    -0.810499385264E+02    0.24622E-04   -0.35819E-05  1473   0.425E-02    0.106E-02
RMM:   6    -0.810499389651E+02   -0.43873E-06   -0.11463E-05  1265   0.289E-02
 142 F= -.84069598E+02 E0= -.84062079E+02  d E =-.295203E-03
       N       E                     dE             d eps       ncg     rms          rms(c)
DAV:   1    -0.810499633322E+02   -0.24806E-04   -0.21090E-02  2096   0.465E-01    0.332E-02
RMM:   2    -0.810499848589E+02   -0.21527E-04   -0.31784E-04  1861   0.112E-01    0.190E-02
RMM:   3    -0.810499990147E+02   -0.14156E-04   -0.12156E-04  1487   0.489E-02    0.122E-02
RMM:   4    -0.810499998130E+02   -0.79831E-06   -0.27579E-05  1345   0.426E-02
 143 F= -.84069616E+02 E0= -.84062085E+02  d E =-.312893E-03
       N       E                     dE             d eps       ncg     rms          rms(c)
DAV:   1    -0.810501504781E+02   -0.15146E-03   -0.33589E-02  2000   0.589E-01    0.431E-02
RMM:   2    -0.810502090018E+02   -0.58524E-04   -0.72786E-04  2147   0.139E-01    0.246E-02
RMM:   3    -0.810502242293E+02   -0.15227E-04   -0.12996E-04  1504   0.488E-02    0.181E-02
RMM:   4    -0.810502259750E+02   -0.17457E-05   -0.35094E-05  1406   0.488E-02
 144 F= -.84069790E+02 E0= -.84062246E+02  d E =-.173851E-03
       N       E                     dE             d eps       ncg     rms          rms(c)
DAV:   1    -0.810502217594E+02    0.24699E-05   -0.30296E-01  2000   0.176E+00    0.126E-01
RMM:   2    -0.810506231813E+02   -0.40142E-03   -0.51089E-03  2559   0.403E-01    0.685E-02
RMM:   3    -0.810507883859E+02   -0.16520E-03   -0.17388E-03  2287   0.129E-01    0.463E-02
RMM:   4    -0.810508382975E+02   -0.49912E-04   -0.25261E-04  2104   0.789E-02    0.323E-02
RMM:   5    -0.810508173295E+02    0.20968E-04   -0.74418E-05  1698   0.531E-02    0.169E-02
RMM:   6    -0.810508078063E+02    0.95231E-05   -0.20416E-05  1374   0.419E-02
 145 F= -.84070213E+02 E0= -.84062640E+02  d E =-.597145E-03
       N       E                     dE             d eps       ncg     rms          rms(c)
DAV:   1    -0.810494279859E+02    0.13893E-02   -0.12211E+00  2000   0.351E+00    0.256E-01
RMM:   2    -0.810509570214E+02   -0.15290E-02   -0.19471E-02  2460   0.793E-01    0.140E-01
RMM:   3    -0.810514942799E+02   -0.53726E-03   -0.57340E-03  2697   0.261E-01    0.929E-02
RMM:   4    -0.810517220504E+02   -0.22777E-03   -0.13750E-03  2553   0.155E-01    0.871E-02
RMM:   5    -0.810515409354E+02    0.18111E-03   -0.27499E-04  2085   0.105E-01    0.325E-02
RMM:   6    -0.810515312570E+02    0.96784E-05   -0.10463E-04  1794   0.727E-02    0.110E-02
RMM:   7    -0.810515342865E+02   -0.30294E-05   -0.40898E-05  1566   0.359E-02
 146 F= -.84070616E+02 E0= -.84062994E+02  d E =-.999740E-03
       N       E                     dE             d eps       ncg     rms          rms(c)
DAV:   1    -0.810516532533E+02   -0.12200E-03   -0.73993E-03  2608   0.278E-01    0.191E-02
RMM:   2    -0.810516650822E+02   -0.11829E-04   -0.14988E-04  1604   0.738E-02    0.127E-02
RMM:   3    -0.810516706024E+02   -0.55202E-05   -0.39738E-05  1365   0.413E-02
 147 F= -.84070731E+02 E0= -.84063114E+02  d E =-.115499E-03
       N       E                     dE             d eps       ncg     rms          rms(c)
DAV:   1    -0.810518389134E+02   -0.17383E-03   -0.66182E-02  2000   0.830E-01    0.612E-02
RMM:   2    -0.810519311485E+02   -0.92235E-04   -0.12690E-03  2518   0.216E-01    0.355E-02
RMM:   3    -0.810519699820E+02   -0.38833E-04   -0.38133E-04  1868   0.765E-02    0.215E-02
RMM:   4    -0.810519794960E+02   -0.95140E-05   -0.73662E-05  1656   0.541E-02
 148 F= -.84070977E+02 E0= -.84063314E+02  d E =-.361666E-03
       N       E                     dE             d eps       ncg     rms          rms(c)
DAV:   1    -0.810516823433E+02    0.28764E-03   -0.26504E-01  2000   0.166E+00    0.118E-01
RMM:   2    -0.810520342083E+02   -0.35187E-03   -0.45418E-03  2672   0.399E-01    0.679E-02
RMM:   3    -0.810523101771E+02   -0.27597E-03   -0.16685E-03  2541   0.162E-01    0.636E-02
RMM:   4    -0.810521522598E+02    0.15792E-03   -0.31432E-04  2039   0.911E-02    0.329E-02
RMM:   5    -0.810521685433E+02   -0.16284E-04   -0.10967E-04  1845   0.457E-02    0.106E-02
RMM:   6    -0.810521673089E+02    0.12345E-05   -0.23054E-05  1399   0.417E-02
 149 F= -.84071039E+02 E0= -.84063348E+02  d E =-.422811E-03
       N       E                     dE             d eps       ncg     rms          rms(c)
DAV:   1    -0.810520873967E+02    0.81147E-04   -0.41461E-02  2000   0.654E-01    0.454E-02
RMM:   2    -0.810521350305E+02   -0.47634E-04   -0.64080E-04  2298   0.151E-01    0.255E-02
RMM:   3    -0.810521665010E+02   -0.31470E-04   -0.23031E-04  1720   0.602E-02    0.186E-02
RMM:   4    -0.810521566848E+02    0.98162E-05   -0.43608E-05  1392   0.482E-02
 150 F= -.84071078E+02 E0= -.84063420E+02  d E =-.462483E-03
       N       E                     dE             d eps       ncg     rms          rms(c)
DAV:   1    -0.810521995593E+02   -0.33058E-04   -0.82836E-04  2672   0.991E-02    0.788E-03
RMM:   2    -0.810522013852E+02   -0.18259E-05   -0.19814E-05  1265   0.307E-02
 151 F= -.84071116E+02 E0= -.84063450E+02  d E =-.381679E-04
       N       E                     dE             d eps       ncg     rms          rms(c)
DAV:   1    -0.810523105698E+02   -0.11101E-03   -0.72099E-03  2088   0.279E-01    0.214E-02
RMM:   2    -0.810523256781E+02   -0.15108E-04   -0.15616E-04  1677   0.746E-02    0.146E-02
RMM:   3    -0.810523279767E+02   -0.22986E-05   -0.53381E-05  1394   0.458E-02
 152 F= -.84071223E+02 E0= -.84063560E+02  d E =-.145101E-03
       N       E                     dE             d eps       ncg     rms          rms(c)
DAV:   1    -0.810524920148E+02   -0.16634E-03   -0.28531E-02  2000   0.546E-01    0.419E-02
RMM:   2    -0.810525329865E+02   -0.40972E-04   -0.55909E-04  2201   0.150E-01    0.255E-02
RMM:   3    -0.810525623162E+02   -0.29330E-04   -0.19455E-04  1761   0.622E-02    0.216E-02
RMM:   4    -0.810525520797E+02    0.10236E-04   -0.35704E-05  1390   0.475E-02    0.144E-02
RMM:   5    -0.810525537202E+02   -0.16405E-05   -0.11114E-05  1261   0.257E-02
 153 F= -.84071410E+02 E0= -.84063732E+02  d E =-.331446E-03
       N       E                     dE             d eps       ncg     rms          rms(c)
DAV:   1    -0.810526870307E+02   -0.13495E-03   -0.11389E-01  2000   0.109E+00    0.766E-02
RMM:   2    -0.810528550046E+02   -0.16797E-03   -0.20997E-03  2580   0.270E-01    0.425E-02
RMM:   3    -0.810529347295E+02   -0.79725E-04   -0.60636E-04  2235   0.973E-02    0.360E-02
RMM:   4    -0.810529106869E+02    0.24043E-04   -0.10314E-04  1710   0.614E-02    0.281E-02
RMM:   5    -0.810529143375E+02   -0.36506E-05   -0.32101E-05  1452   0.400E-02
 154 F= -.84071691E+02 E0= -.84063997E+02  d E =-.612921E-03
       N       E                     dE             d eps       ncg     rms          rms(c)
DAV:   1    -0.810523824285E+02    0.52826E-03   -0.45595E-01  2000   0.217E+00    0.152E-01
RMM:   2    -0.810530117551E+02   -0.62933E-03   -0.78523E-03  2658   0.501E-01    0.834E-02
RMM:   3    -0.810533122531E+02   -0.30050E-03   -0.24697E-03  2585   0.181E-01    0.679E-02
RMM:   4    -0.810532421639E+02    0.70089E-04   -0.44394E-04  2176   0.100E-01    0.545E-02
RMM:   5    -0.810532462495E+02   -0.40857E-05   -0.13008E-04  1945   0.629E-02    0.197E-02
RMM:   6    -0.810532420170E+02    0.42325E-05   -0.47626E-05  1567   0.566E-02
 155 F= -.84071860E+02 E0= -.84064093E+02  d E =-.781193E-03
       N       E                     dE             d eps       ncg     rms          rms(c)
DAV:   1    -0.810532167280E+02    0.29521E-04   -0.73965E-03  2112   0.279E-01    0.195E-02
RMM:   2    -0.810532279847E+02   -0.11257E-04   -0.14191E-04  1549   0.625E-02    0.106E-02
RMM:   3    -0.810532318183E+02   -0.38335E-05   -0.29062E-05  1316   0.348E-02
 156 F= -.84071870E+02 E0= -.84064114E+02  d E =-.791381E-03
