       N       E                     dE             d eps       ncg     rms          rms(c)
DAV:   1     0.280568930123E+04    0.28057E+04   -0.84207E+04  6776   0.195E+03
DAV:   2     0.471245887646E+03   -0.23344E+04   -0.22637E+04  6904   0.629E+02
DAV:   3    -0.238179080134E+02   -0.49506E+03   -0.46667E+03  7736   0.255E+02
DAV:   4    -0.867449450917E+02   -0.62927E+02   -0.60338E+02  9216   0.892E+01
DAV:   5    -0.909539370036E+02   -0.42090E+01   -0.38771E+01  9752   0.201E+01    0.187E+01
DAV:   6    -0.876852983475E+02    0.32686E+01   -0.32934E+01  8840   0.261E+01    0.103E+01
DAV:   7    -0.885341637357E+02   -0.84887E+00   -0.34186E+01  9120   0.306E+01    0.904E+00
DAV:   8    -0.840751244517E+02    0.44590E+01   -0.17224E+01  8656   0.150E+01    0.431E+00
DAV:   9    -0.838345073986E+02    0.24062E+00   -0.28749E+00  8336   0.979E+00    0.187E+00
DAV:  10    -0.838061037612E+02    0.28404E-01   -0.73980E-01  8304   0.608E+00    0.116E+00
DAV:  11    -0.837811820946E+02    0.24922E-01   -0.18802E-01  8600   0.321E+00    0.544E-01
DAV:  12    -0.837729395310E+02    0.82426E-02   -0.56773E-02  8264   0.223E+00    0.323E-01
DAV:  13    -0.837709353390E+02    0.20042E-02   -0.21740E-02  8144   0.143E+00    0.167E-01
DAV:  14    -0.837694508820E+02    0.14845E-02   -0.82306E-03  7984   0.737E-01    0.923E-02
DAV:  15    -0.837688897573E+02    0.56112E-03   -0.25064E-03  7976   0.701E-01    0.593E-02
DAV:  16    -0.837687344628E+02    0.15529E-03   -0.12852E-03  8464   0.360E-01    0.405E-02
DAV:  17    -0.837687019222E+02    0.32541E-04   -0.51417E-04  8064   0.231E-01    0.249E-02
DAV:  18    -0.837688958364E+02   -0.19391E-03   -0.34944E-04  7392   0.118E-01    0.179E-02
DAV:  19    -0.837692454645E+02   -0.34963E-03   -0.18300E-04  6952   0.188E-01    0.121E-02
DAV:  20    -0.837696031008E+02   -0.35764E-03   -0.67285E-05  7016   0.877E-02    0.872E-03
DAV:  21    -0.837699856500E+02   -0.38255E-03   -0.32122E-05  5376   0.452E-02    0.561E-03
DAV:  22    -0.837702516575E+02   -0.26601E-03   -0.34746E-05  5808   0.310E-02    0.308E-03
DAV:  23    -0.837703211773E+02   -0.69520E-04   -0.10271E-05  5160   0.278E-02    0.222E-03
DAV:  24    -0.837703551796E+02   -0.34002E-04   -0.35173E-06  4488   0.191E-02    0.124E-03
DAV:  25    -0.837703766375E+02   -0.21458E-04   -0.32081E-06  4584   0.812E-03    0.788E-04
DAV:  26    -0.837703838672E+02   -0.72297E-05   -0.14523E-06  4232   0.888E-03
   1 F= -.86892980E+02 E0= -.86894237E+02  d E =0.377179E-02
       N       E                     dE             d eps       ncg     rms          rms(c)
DAV:   1    -0.837694719433E+02    0.90469E-03   -0.12920E-01  5992   0.388E-01    0.156E-01
DAV:   2    -0.837695470098E+02   -0.75066E-04   -0.25813E-03  6888   0.160E-01    0.975E-02
DAV:   3    -0.837697683906E+02   -0.22138E-03   -0.18425E-03  7616   0.380E-01    0.108E-01
DAV:   4    -0.837694911498E+02    0.27724E-03   -0.13730E-03  7360   0.426E-01    0.386E-02
DAV:   5    -0.837695013800E+02   -0.10230E-04   -0.34313E-04  7096   0.226E-01    0.292E-02
DAV:   6    -0.837694726055E+02    0.28775E-04   -0.76891E-05  6384   0.106E-01    0.654E-03
DAV:   7    -0.837694758549E+02   -0.32494E-05   -0.87841E-06  4912   0.136E-02
   2 F= -.86892092E+02 E0= -.86893345E+02  d E =0.375990E-02
       N       E                     dE             d eps       ncg     rms          rms(c)
DAV:   1    -0.837692050422E+02    0.26756E-03   -0.52001E-01  6096   0.780E-01    0.310E-01
DAV:   2    -0.837694877047E+02   -0.28266E-03   -0.98152E-03  7240   0.318E-01    0.194E-01
DAV:   3    -0.837704258982E+02   -0.93819E-03   -0.76837E-03  7824   0.772E-01    0.221E-01
DAV:   4    -0.837692810348E+02    0.11449E-02   -0.55126E-03  7688   0.825E-01    0.748E-02
DAV:   5    -0.837693268051E+02   -0.45770E-04   -0.13407E-03  7352   0.461E-01    0.569E-02
DAV:   6    -0.837692165771E+02    0.11023E-03   -0.29406E-04  7208   0.197E-01    0.129E-02
DAV:   7    -0.837692232330E+02   -0.66559E-05   -0.33977E-05  6368   0.255E-02
   3 F= -.86891801E+02 E0= -.86893062E+02  d E =0.378299E-02
       N       E                     dE             d eps       ncg     rms          rms(c)
DAV:   1    -0.837680686420E+02    0.11479E-02   -0.28453E-01  6072   0.566E-01    0.286E-01
DAV:   2    -0.837680724344E+02   -0.37924E-05   -0.10482E-02  7352   0.292E-01    0.190E-01
DAV:   3    -0.837684810436E+02   -0.40861E-03   -0.66863E-03  7800   0.696E-01    0.190E-01
DAV:   4    -0.837676811495E+02    0.79989E-03   -0.41631E-03  7744   0.757E-01    0.837E-02
DAV:   5    -0.837677015140E+02   -0.20365E-04   -0.13181E-03  7312   0.428E-01    0.632E-02
DAV:   6    -0.837675567961E+02    0.14472E-03   -0.33616E-04  7312   0.223E-01    0.131E-02
DAV:   7    -0.837675642051E+02   -0.74090E-05   -0.32041E-05  6168   0.171E-02
   4 F= -.86890197E+02 E0= -.86891474E+02  d E =0.382979E-02
       N       E                     dE             d eps       ncg     rms          rms(c)
DAV:   1    -0.837669741819E+02    0.58261E-03   -0.56670E-01  6176   0.806E-01    0.388E-01
DAV:   2    -0.837670107523E+02   -0.36570E-04   -0.18564E-02  7344   0.384E-01    0.261E-01
DAV:   3    -0.837677756563E+02   -0.76490E-03   -0.12805E-02  8032   0.913E-01    0.262E-01
DAV:   4    -0.837663287213E+02    0.14469E-02   -0.77138E-03  7680   0.982E-01    0.113E-01
DAV:   5    -0.837663589358E+02   -0.30215E-04   -0.25754E-03  7344   0.641E-01    0.837E-02
DAV:   6    -0.837661184056E+02    0.24053E-03   -0.59023E-04  7248   0.282E-01    0.170E-02
DAV:   7    -0.837661252349E+02   -0.68293E-05   -0.57118E-05  6408   0.238E-02
   5 F= -.86888688E+02 E0= -.86889925E+02  d E =0.371191E-02
       N       E                     dE             d eps       ncg     rms          rms(c)
DAV:   1    -0.837694173991E+02   -0.32990E-02   -0.29490E-01  6160   0.594E-01    0.321E-01
DAV:   2    -0.837702942759E+02   -0.87688E-03   -0.19152E-02  7384   0.494E-01    0.283E-01
DAV:   3    -0.837696548467E+02    0.63943E-03   -0.11959E-02  8000   0.948E-01    0.199E-01
DAV:   4    -0.837689912004E+02    0.66365E-03   -0.46985E-03  7600   0.888E-01    0.106E-01
DAV:   5    -0.837689000931E+02    0.91107E-04   -0.15713E-03  7352   0.469E-01    0.694E-02
DAV:   6    -0.837687936388E+02    0.10645E-03   -0.30830E-04  7192   0.193E-01    0.139E-02
DAV:   7    -0.837687981279E+02   -0.44891E-05   -0.38385E-05  6672   0.269E-02
   6 F= -.86891067E+02 E0= -.86892353E+02  d E =0.385836E-02
       N       E                     dE             d eps       ncg     rms          rms(c)
DAV:   1    -0.837667679807E+02    0.20257E-02   -0.54925E-01  6104   0.810E-01    0.320E-01
DAV:   2    -0.837687263646E+02   -0.19584E-02   -0.22708E-02  7512   0.646E-01    0.329E-01
DAV:   3    -0.837671117656E+02    0.16146E-02   -0.14956E-02  7712   0.107E+00    0.189E-01
DAV:   4    -0.837668123546E+02    0.29941E-03   -0.43566E-03  7656   0.831E-01    0.113E-01
DAV:   5    -0.837666409848E+02    0.17137E-03   -0.15310E-03  7352   0.491E-01    0.613E-02
DAV:   6    -0.837665961448E+02    0.44840E-04   -0.23603E-04  7112   0.141E-01    0.134E-02
DAV:   7    -0.837666018080E+02   -0.56632E-05   -0.31871E-05  6464   0.319E-02
   7 F= -.86889532E+02 E0= -.86890763E+02  d E =0.369100E-02
       N       E                     dE             d eps       ncg     rms          rms(c)
DAV:   1    -0.837676909103E+02   -0.10948E-02   -0.15899E+00  6720   0.172E+00    0.265E-01
DAV:   2    -0.837697333093E+02   -0.20424E-02   -0.25439E-02  7952   0.378E-01    0.175E-01
DAV:   3    -0.837699129834E+02   -0.17967E-03   -0.27800E-03  7544   0.377E-01    0.153E-01
DAV:   4    -0.837697151682E+02    0.19782E-03   -0.30344E-03  7552   0.578E-01    0.921E-02
DAV:   5    -0.837697149831E+02    0.18513E-06   -0.16312E-03  7384   0.499E-01    0.612E-02
DAV:   6    -0.837695745742E+02    0.14041E-03   -0.43201E-04  7368   0.266E-01    0.139E-02
DAV:   7    -0.837695787997E+02   -0.42254E-05   -0.34882E-05  6056   0.227E-02
   8 F= -.86892261E+02 E0= -.86893477E+02  d E =0.364653E-02
       N       E                     dE             d eps       ncg     rms          rms(c)
DAV:   1    -0.837634535346E+02    0.61210E-02   -0.58167E+00  6424   0.323E+00    0.429E-01
DAV:   2    -0.837706521501E+02   -0.71986E-02   -0.82347E-02  7656   0.995E-01    0.330E-01
DAV:   3    -0.837710854661E+02   -0.43332E-03   -0.15417E-02  8128   0.117E+00    0.278E-01
DAV:   4    -0.837696509608E+02    0.14345E-02   -0.90727E-03  7528   0.115E+00    0.126E-01
DAV:   5    -0.837698733013E+02   -0.22234E-03   -0.29965E-03  7760   0.685E-01    0.101E-01
DAV:   6    -0.837695632123E+02    0.31009E-03   -0.89860E-04  7568   0.354E-01    0.221E-02
DAV:   7    -0.837695771156E+02   -0.13903E-04   -0.11156E-04  7672   0.508E-02    0.124E-02
DAV:   8    -0.837695790397E+02   -0.19241E-05   -0.17688E-05  5424   0.505E-02
   9 F= -.86892059E+02 E0= -.86893359E+02  d E =0.389771E-02
       N       E                     dE             d eps       ncg     rms          rms(c)
DAV:   1    -0.837644382531E+02    0.51389E-02   -0.30869E+00  6608   0.244E+00    0.249E-01
DAV:   2    -0.837694221144E+02   -0.49839E-02   -0.48851E-02  7784   0.935E-01    0.223E-01
DAV:   3    -0.837689734686E+02    0.44865E-03   -0.92121E-03  7592   0.991E-01    0.162E-01
DAV:   4    -0.837685421338E+02    0.43133E-03   -0.22974E-03  7384   0.522E-01    0.898E-02
DAV:   5    -0.837686724754E+02   -0.13034E-03   -0.84805E-04  7440   0.327E-01    0.704E-02
DAV:   6    -0.837685819741E+02    0.90501E-04   -0.35127E-04  7560   0.205E-01    0.133E-02
DAV:   7    -0.837685882596E+02   -0.62855E-05   -0.48510E-05  6896   0.346E-02
  10 F= -.86891399E+02 E0= -.86892647E+02  d E =0.374282E-02
       N       E                     dE             d eps       ncg     rms          rms(c)
DAV:   1    -0.837619332861E+02    0.66487E-02   -0.61073E+00  6400   0.340E+00    0.372E-01
DAV:   2    -0.837721652719E+02   -0.10232E-01   -0.98866E-02  7824   0.124E+00    0.398E-01
DAV:   3    -0.837701919013E+02    0.19734E-02   -0.18566E-02  7664   0.125E+00    0.228E-01
DAV:   4    -0.837697016983E+02    0.49020E-03   -0.51390E-03  7352   0.878E-01    0.149E-01
DAV:   5    -0.837697814149E+02   -0.79717E-04   -0.20762E-03  7712   0.560E-01    0.110E-01
DAV:   6    -0.837695854488E+02    0.19597E-03   -0.73836E-04  7808   0.293E-01    0.225E-02
DAV:   7    -0.837695965969E+02   -0.11148E-04   -0.11696E-04  7648   0.634E-02    0.142E-02
DAV:   8    -0.837695969581E+02   -0.36116E-06   -0.19190E-05  5472   0.447E-02
  11 F= -.86891956E+02 E0= -.86893227E+02  d E =0.381430E-02
       N       E                     dE             d eps       ncg     rms          rms(c)
DAV:   1    -0.837506270596E+02    0.18970E-01   -0.31585E+00  6512   0.245E+00    0.403E-01
DAV:   2    -0.837625135060E+02   -0.11886E-01   -0.11222E-01  9496   0.170E+00    0.653E-01
DAV:   3    -0.837541545025E+02    0.83590E-02   -0.34141E-02  7600   0.169E+00    0.312E-01
DAV:   4    -0.837541389827E+02    0.15520E-04   -0.46408E-03  7288   0.782E-01    0.247E-01
DAV:   5    -0.837540940373E+02    0.44945E-04   -0.29839E-03  7856   0.614E-01    0.177E-01
DAV:   6    -0.837536718707E+02    0.42217E-03   -0.14377E-03  8456   0.380E-01    0.355E-02
DAV:   7    -0.837536942598E+02   -0.22389E-04   -0.22991E-04  7528   0.747E-02    0.203E-02
DAV:   8    -0.837536996524E+02   -0.53926E-05   -0.36544E-05  6480   0.451E-02
  12 F= -.86875687E+02 E0= -.86877028E+02  d E =0.402345E-02
       N       E                     dE             d eps       ncg     rms          rms(c)
DAV:   1    -0.837555211726E+02   -0.18269E-02   -0.64465E+00  6480   0.344E+00    0.835E-01
DAV:   2    -0.838017813318E+02   -0.46260E-01   -0.40111E-01 11104   0.395E+00    0.141E+00
DAV:   3    -0.837567625090E+02    0.45019E-01   -0.19029E-01  9408   0.424E+00    0.643E-01
DAV:   4    -0.837565014942E+02    0.26101E-03   -0.24148E-02  8400   0.142E+00    0.499E-01
DAV:   5    -0.837559319188E+02    0.56958E-03   -0.12976E-02  8208   0.131E+00    0.340E-01
DAV:   6    -0.837544726913E+02    0.14592E-02   -0.47213E-03  8968   0.658E-01    0.711E-02
DAV:   7    -0.837546142847E+02   -0.14159E-03   -0.80526E-04  8224   0.164E-01    0.378E-02
DAV:   8    -0.837546761047E+02   -0.61820E-04   -0.14142E-04  7968   0.107E-01    0.191E-02
DAV:   9    -0.837547306362E+02   -0.54532E-04   -0.44610E-05  6792   0.747E-02    0.818E-03
DAV:  10    -0.837547545939E+02   -0.23958E-04   -0.91496E-06  4960   0.328E-02    0.435E-03
DAV:  11    -0.837547785931E+02   -0.23999E-04   -0.69412E-06  4688   0.142E-02    0.283E-03
DAV:  12    -0.837548082682E+02   -0.29675E-04   -0.55806E-06  5000   0.173E-02    0.177E-03
DAV:  13    -0.837548312916E+02   -0.23023E-04   -0.34923E-06  4824   0.778E-03    0.191E-03
DAV:  14    -0.837548469896E+02   -0.15698E-04   -0.27657E-06  4848   0.764E-03    0.791E-04
DAV:  15    -0.837548538156E+02   -0.68260E-05   -0.13180E-06  4472   0.421E-03
  13 F= -.86878042E+02 E0= -.86879218E+02  d E =0.352733E-02
       N       E                     dE             d eps       ncg     rms          rms(c)
DAV:   1    -0.837666242075E+02   -0.11777E-01   -0.32252E+00  6552   0.257E+00    0.471E-01
DAV:   2    -0.837820481824E+02   -0.15424E-01   -0.14827E-01  9376   0.210E+00    0.787E-01
DAV:   3    -0.837696366357E+02    0.12412E-01   -0.46368E-02  7864   0.199E+00    0.376E-01
DAV:   4    -0.837695179186E+02    0.11872E-03   -0.65262E-03  7288   0.887E-01    0.292E-01
DAV:   5    -0.837693815120E+02    0.13641E-03   -0.43010E-03  7624   0.740E-01    0.205E-01
DAV:   6    -0.837687317303E+02    0.64978E-03   -0.16576E-03  8088   0.442E-01    0.509E-02
DAV:   7    -0.837687623243E+02   -0.30594E-04   -0.29737E-04  8056   0.733E-02    0.196E-02
DAV:   8    -0.837687713541E+02   -0.90298E-05   -0.31686E-05  6216   0.517E-02
  14 F= -.86891339E+02 E0= -.86892610E+02  d E =0.381414E-02
       N       E                     dE             d eps       ncg     rms          rms(c)
DAV:   1    -0.837646185038E+02    0.41438E-02   -0.61361E+00  7216   0.349E+00    0.631E-01
DAV:   2    -0.837696730089E+02   -0.50545E-02   -0.95753E-02  7304   0.717E-01    0.343E-01
DAV:   3    -0.837690666768E+02    0.60633E-03   -0.43382E-03  7624   0.262E-01    0.226E-01
DAV:   4    -0.837705327980E+02   -0.14661E-02   -0.10067E-02  7608   0.916E-01    0.259E-01
DAV:   5    -0.837689394199E+02    0.15934E-02   -0.75499E-03  7424   0.974E-01    0.826E-02
DAV:   6    -0.837689082634E+02    0.31157E-04   -0.15672E-03  7240   0.488E-01    0.526E-02
DAV:   7    -0.837688591721E+02    0.49091E-04   -0.19614E-04  7032   0.146E-01    0.165E-02
DAV:   8    -0.837688626064E+02   -0.34343E-05   -0.35274E-05  6304   0.208E-02
  15 F= -.86891492E+02 E0= -.86892727E+02  d E =0.370403E-02
       N       E                     dE             d eps       ncg     rms          rms(c)
DAV:   1    -0.837623804744E+02    0.64787E-02   -0.32206E+00  6480   0.258E+00    0.414E-01
DAV:   2    -0.837655869241E+02   -0.32064E-02   -0.52565E-02  7272   0.498E-01    0.219E-01
DAV:   3    -0.837653185770E+02    0.26835E-03   -0.21130E-03  7224   0.157E-01    0.147E-01
DAV:   4    -0.837655933574E+02   -0.27478E-03   -0.19724E-03  7576   0.379E-01    0.131E-01
DAV:   5    -0.837653023265E+02    0.29103E-03   -0.24199E-03  7328   0.458E-01    0.632E-02
DAV:   6    -0.837652666361E+02    0.35690E-04   -0.91142E-04  7392   0.367E-01    0.416E-02
DAV:   7    -0.837652040423E+02    0.62594E-04   -0.21507E-04  7024   0.187E-01    0.144E-02
DAV:   8    -0.837652038376E+02    0.20465E-06   -0.17515E-05  5720   0.304E-02
  16 F= -.86887746E+02 E0= -.86888983E+02  d E =0.370984E-02
       N       E                     dE             d eps       ncg     rms          rms(c)
DAV:   1    -0.837595819757E+02    0.56221E-02   -0.63056E+00  7160   0.360E+00    0.662E-01
DAV:   2    -0.837669446013E+02   -0.73626E-02   -0.12215E-01  7200   0.827E-01    0.350E-01
DAV:   3    -0.837663428899E+02    0.60171E-03   -0.50104E-03  8056   0.277E-01    0.260E-01
DAV:   4    -0.837668838944E+02   -0.54100E-03   -0.46612E-03  7568   0.451E-01    0.235E-01
DAV:   5    -0.837664950768E+02    0.38882E-03   -0.57489E-03  7504   0.760E-01    0.122E-01
DAV:   6    -0.837662218144E+02    0.27326E-03   -0.34243E-03  7208   0.794E-01    0.671E-02
DAV:   7    -0.837660603675E+02    0.16145E-03   -0.54989E-04  7296   0.267E-01    0.176E-02
DAV:   8    -0.837660661879E+02   -0.58204E-05   -0.45203E-05  6392   0.232E-02
  17 F= -.86888722E+02 E0= -.86889993E+02  d E =0.381288E-02
       N       E                     dE             d eps       ncg     rms          rms(c)
DAV:   1    -0.837541135502E+02    0.11947E-01   -0.31345E+00  6256   0.244E+00    0.471E-01
DAV:   2    -0.837645545568E+02   -0.10441E-01   -0.10739E-01  7616   0.158E+00    0.616E-01
DAV:   3    -0.837567628398E+02    0.77917E-02   -0.48839E-02  7792   0.200E+00    0.252E-01
DAV:   4    -0.837564495704E+02    0.31327E-03   -0.10783E-02  7408   0.117E+00    0.176E-01
DAV:   5    -0.837558709900E+02    0.57858E-03   -0.29803E-03  7384   0.700E-01    0.888E-02
DAV:   6    -0.837558550714E+02    0.15919E-04   -0.44412E-04  7208   0.164E-01    0.232E-02
DAV:   7    -0.837558857361E+02   -0.30665E-04   -0.87275E-05  6928   0.941E-02    0.152E-02
DAV:   8    -0.837558948884E+02   -0.91523E-05   -0.19363E-05  5512   0.447E-02
  18 F= -.86877984E+02 E0= -.86879242E+02  d E =0.377271E-02
       N       E                     dE             d eps       ncg     rms          rms(c)
DAV:   1    -0.837523284960E+02    0.35572E-02   -0.64456E+00  7040   0.349E+00    0.826E-01
DAV:   2    -0.837915400483E+02   -0.39212E-01   -0.38434E-01 10752   0.320E+00    0.125E+00
DAV:   3    -0.837566931708E+02    0.34847E-01   -0.15185E-01  8616   0.344E+00    0.442E-01
DAV:   4    -0.837563415147E+02    0.35166E-03   -0.36619E-02  8064   0.239E+00    0.329E-01
DAV:   5    -0.837536924434E+02    0.26491E-02   -0.10037E-02  7384   0.109E+00    0.141E-01
DAV:   6    -0.837536225555E+02    0.69888E-04   -0.13469E-03  8288   0.254E-01    0.627E-02
DAV:   7    -0.837536259125E+02   -0.33571E-05   -0.32282E-04  8752   0.249E-01    0.346E-02
DAV:   8    -0.837536146575E+02    0.11255E-04   -0.87067E-05  7696   0.887E-02    0.110E-02
DAV:   9    -0.837536302348E+02   -0.15577E-04   -0.22957E-05  5392   0.268E-02    0.640E-03
DAV:  10    -0.837536436506E+02   -0.13416E-04   -0.47089E-06  4464   0.292E-02    0.431E-03
DAV:  11    -0.837536638682E+02   -0.20218E-04   -0.34773E-06  4664   0.102E-02    0.269E-03
DAV:  12    -0.837536848941E+02   -0.21026E-04   -0.34037E-06  4728   0.117E-02    0.224E-03
DAV:  13    -0.837537069753E+02   -0.22081E-04   -0.37106E-06  4800   0.795E-03    0.140E-03
DAV:  14    -0.837537269294E+02   -0.19954E-04   -0.36923E-06  4800   0.488E-03    0.107E-03
DAV:  15    -0.837537339514E+02   -0.70219E-05   -0.11376E-06  4576   0.525E-03
  19 F= -.86876841E+02 E0= -.86878106E+02  d E =0.379649E-02
