       N       E                     dE             d eps       ncg     rms          rms(c)
DAV:   1     0.231829979414E+04    0.23183E+04   -0.93687E+04  5784   0.161E+03
DAV:   2     0.298520605599E+03   -0.20198E+04   -0.19649E+04  5760   0.463E+02
DAV:   3    -0.581710606186E+02   -0.35669E+03   -0.34646E+03  6240   0.204E+02
DAV:   4    -0.937298906930E+02   -0.35559E+02   -0.33611E+02  7056   0.570E+01
DAV:   5    -0.970191347606E+02   -0.32892E+01   -0.32574E+01  8888   0.126E+01    0.418E+01
RMM:   6    -0.987880621155E+02   -0.17689E+01   -0.22180E+01  6270   0.789E+00    0.315E+01
RMM:   7    -0.100190908304E+03   -0.14028E+01   -0.16412E+01  6685   0.650E+00    0.241E+01
RMM:   8    -0.948707116917E+02    0.53202E+01   -0.76689E+00  6840   0.555E+00    0.144E+01
RMM:   9    -0.893135818564E+02    0.55571E+01   -0.37287E+00  7102   0.372E+00    0.451E+00
RMM:  10    -0.892674589639E+02    0.46123E-01   -0.11139E+00  7904   0.190E+00    0.334E+00
RMM:  11    -0.894022053040E+02   -0.13475E+00   -0.83592E-01  8741   0.140E+00    0.381E+00
RMM:  12    -0.892536342290E+02    0.14857E+00   -0.43857E-01  8855   0.119E+00    0.275E+00
RMM:  13    -0.891950265303E+02    0.58608E-01   -0.19053E-01  9136   0.731E-01    0.127E+00
RMM:  14    -0.891833332850E+02    0.11693E-01   -0.88338E-02  9460   0.446E-01    0.366E-01
RMM:  15    -0.891879493148E+02   -0.46160E-02   -0.50352E-02  9643   0.329E-01    0.296E-01
RMM:  16    -0.891915712749E+02   -0.36220E-02   -0.37975E-02  9535   0.247E-01    0.298E-01
RMM:  17    -0.891937910268E+02   -0.22198E-02   -0.19837E-02  9811   0.186E-01    0.297E-01
RMM:  18    -0.891942443186E+02   -0.45329E-03   -0.14144E-02  9568   0.167E-01    0.146E-01
RMM:  19    -0.891953751645E+02   -0.11308E-02   -0.89757E-03  9586   0.118E-01    0.602E-02
RMM:  20    -0.891963432539E+02   -0.96809E-03   -0.63005E-03  9524   0.934E-02    0.181E-02
RMM:  21    -0.891968725656E+02   -0.52931E-03   -0.39310E-03  8930   0.707E-02    0.200E-02
RMM:  22    -0.891974556460E+02   -0.58308E-03   -0.26243E-03  8457   0.570E-02    0.181E-02
RMM:  23    -0.891978000701E+02   -0.34442E-03   -0.18261E-03  7580   0.463E-02    0.235E-02
RMM:  24    -0.891980087787E+02   -0.20871E-03   -0.12199E-03  6462   0.379E-02    0.289E-02
RMM:  25    -0.891981147385E+02   -0.10596E-03   -0.86521E-04  5565   0.308E-02    0.308E-02
RMM:  26    -0.891981854399E+02   -0.70701E-04   -0.56970E-04  5024   0.255E-02    0.289E-02
RMM:  27    -0.891982425638E+02   -0.57124E-04   -0.39539E-04  5008   0.223E-02    0.190E-02
RMM:  28    -0.891982731595E+02   -0.30596E-04   -0.26462E-04  4594   0.176E-02    0.924E-03
RMM:  29    -0.891982915780E+02   -0.18418E-04   -0.18766E-04  4298   0.141E-02    0.103E-02
RMM:  30    -0.891983049196E+02   -0.13342E-04   -0.13251E-04  3960   0.119E-02    0.766E-03
RMM:  31    -0.891983143672E+02   -0.94475E-05   -0.90487E-05  3695   0.106E-02
   1 F= -.92300819E+02 E0= -.92299067E+02  d E =-.923008E+02
       N       E                     dE             d eps       ncg     rms          rms(c)
DAV:   1     0.179369368511E+03    0.26857E+03   -0.56663E+03  6232   0.196E+02    0.180E+02
RMM:   2     0.131296394245E+03   -0.48073E+02   -0.52105E+02  6525   0.438E+01    0.159E+02
RMM:   3     0.106658292135E+03   -0.24638E+02   -0.11382E+02  6486   0.225E+01    0.812E+01
RMM:   4     0.813246760424E+02   -0.25334E+02   -0.57433E+01  6788   0.159E+01    0.342E+01
RMM:   5     0.130115220075E+03    0.48791E+02   -0.14195E+01  6725   0.934E+00    0.333E+01
RMM:   6     0.130598354495E+03    0.48313E+00   -0.37730E+00  8275   0.420E+00    0.274E+01
RMM:   7     0.131284673992E+03    0.68632E+00   -0.12891E+00  8010   0.259E+00    0.195E+01
RMM:   8     0.131803343268E+03    0.51867E+00   -0.18938E+00  6733   0.303E+00    0.269E+00
RMM:   9     0.131734196455E+03   -0.69147E-01   -0.41948E-01  8733   0.144E+00    0.442E+00
RMM:  10     0.131708634711E+03   -0.25562E-01   -0.35186E-01  9085   0.850E-01    0.497E+00
RMM:  11     0.131708953885E+03    0.31917E-03   -0.26175E-01  7012   0.886E-01    0.233E+00
RMM:  12     0.131702291534E+03   -0.66624E-02   -0.11495E-01  8695   0.539E-01    0.186E+00
RMM:  13     0.131692837620E+03   -0.94539E-02   -0.84992E-02  9532   0.342E-01    0.198E+00
RMM:  14     0.131693833363E+03    0.99574E-03   -0.37951E-02  8661   0.248E-01    0.154E+00
RMM:  15     0.131694711525E+03    0.87816E-03   -0.27446E-02  8702   0.193E-01    0.109E+00
RMM:  16     0.131693831829E+03   -0.87970E-03   -0.15697E-02  8735   0.142E-01    0.862E-01
RMM:  17     0.131693089176E+03   -0.74265E-03   -0.10589E-02  8271   0.105E-01    0.847E-01
RMM:  18     0.131692079986E+03   -0.10092E-02   -0.79853E-03  7777   0.832E-02    0.857E-01
RMM:  19     0.131695147319E+03    0.30673E-02   -0.57531E-03  8337   0.952E-02    0.624E-01
RMM:  20     0.131695631271E+03    0.48395E-03   -0.41333E-03  7995   0.695E-02    0.450E-01
RMM:  21     0.131695423136E+03   -0.20813E-03   -0.19270E-03  7099   0.482E-02    0.422E-01
RMM:  22     0.131695156213E+03   -0.26692E-03   -0.17733E-03  6609   0.429E-02    0.325E-01
RMM:  23     0.131695695116E+03    0.53890E-03   -0.17161E-03  6873   0.486E-02    0.166E-01
RMM:  24     0.131695737265E+03    0.42149E-04   -0.14095E-03  6385   0.374E-02    0.944E-02
RMM:  25     0.131695770105E+03    0.32840E-04   -0.10267E-03  6228   0.370E-02    0.273E-02
RMM:  26     0.131695602673E+03   -0.16743E-03   -0.10092E-03  5716   0.300E-02    0.415E-02
RMM:  27     0.131695459753E+03   -0.14292E-03   -0.58384E-04  5058   0.222E-02    0.454E-02
RMM:  28     0.131695361983E+03   -0.97770E-04   -0.44059E-04  4805   0.171E-02    0.472E-02
RMM:  29     0.131695332332E+03   -0.29651E-04   -0.26232E-04  4496   0.135E-02    0.382E-02
RMM:  30     0.131695310401E+03   -0.21931E-04   -0.19673E-04  3942   0.985E-03    0.320E-02
RMM:  31     0.131695300953E+03   -0.94484E-05   -0.13980E-04  3779   0.833E-03    0.224E-02
RMM:  32     0.131695291385E+03   -0.95673E-05   -0.98111E-05  3046   0.678E-03
   2 F= 0.12855644E+03 E0= 0.12856280E+03  d E =0.220857E+03
       N       E                     dE             d eps       ncg     rms          rms(c)
DAV:   1    -0.368259041010E+02   -0.16852E+03   -0.47069E+03  7280   0.268E+02    0.192E+02
RMM:   2    -0.474186511587E+02   -0.10593E+02   -0.34276E+02  6671   0.829E+01    0.165E+02
RMM:   3    -0.462433012703E+02    0.11753E+01   -0.11198E+02  7016   0.320E+01    0.107E+02
RMM:   4    -0.550061231940E+02   -0.87628E+01   -0.11240E+02  8344   0.306E+01    0.870E+01
RMM:   5    -0.458988148909E+02    0.91073E+01   -0.33636E+01  8018   0.167E+01    0.819E+01
RMM:   6    -0.413064814044E+02    0.45923E+01   -0.19547E+01  8416   0.116E+01    0.676E+01
RMM:   7    -0.417886066647E+02   -0.48213E+00   -0.14297E+01  9179   0.846E+00    0.493E+01
RMM:   8    -0.406296972181E+02    0.11589E+01   -0.82381E+00  9261   0.653E+00    0.458E+01
RMM:   9    -0.410586472054E+02   -0.42895E+00   -0.49837E+00  9859   0.474E+00    0.427E+01
RMM:  10    -0.410353907423E+02    0.23256E-01   -0.25419E+00  9576   0.457E+00    0.361E+01
RMM:  11    -0.412785234677E+02   -0.24313E+00   -0.23251E+00  9634   0.427E+00    0.256E+01
RMM:  12    -0.408026189825E+02    0.47590E+00   -0.10018E+00  9682   0.318E+00    0.175E+01
RMM:  13    -0.405710314856E+02    0.23159E+00   -0.96199E-01  9629   0.311E+00    0.165E+01
RMM:  14    -0.405277545040E+02    0.43277E-01   -0.15780E+00  9676   0.294E+00    0.133E+01
RMM:  15    -0.405467714453E+02   -0.19017E-01   -0.95706E-01  9667   0.266E+00    0.107E+01
RMM:  16    -0.405662531214E+02   -0.19482E-01   -0.56480E-01  9833   0.216E+00    0.794E+00
RMM:  17    -0.405959707842E+02   -0.29718E-01   -0.55582E-01  9863   0.197E+00    0.542E+00
RMM:  18    -0.406098499600E+02   -0.13879E-01   -0.42402E-01  9722   0.188E+00    0.181E+00
RMM:  19    -0.406355874460E+02   -0.25737E-01   -0.35845E-01  9706   0.185E+00    0.334E-01
RMM:  20    -0.406689506375E+02   -0.33363E-01   -0.32624E-01  9805   0.169E+00    0.715E-01
RMM:  21    -0.406870514253E+02   -0.18101E-01   -0.21322E-01  9786   0.156E+00    0.749E-01
RMM:  22    -0.407018382060E+02   -0.14787E-01   -0.17956E-01  9602   0.146E+00    0.895E-01
RMM:  23    -0.407257134555E+02   -0.23875E-01   -0.24115E-01  9655   0.145E+00    0.764E-01
RMM:  24    -0.407450381190E+02   -0.19325E-01   -0.17257E-01  9690   0.131E+00    0.285E-01
RMM:  25    -0.407583489410E+02   -0.13311E-01   -0.15246E-01  9480   0.132E+00    0.146E-01
RMM:  26    -0.407717773186E+02   -0.13428E-01   -0.13771E-01  9680   0.120E+00    0.152E-01
RMM:  27    -0.407858930875E+02   -0.14116E-01   -0.14294E-01  9651   0.116E+00    0.231E-01
RMM:  28    -0.408000207141E+02   -0.14128E-01   -0.14003E-01  9601   0.113E+00    0.350E-01
RMM:  29    -0.408095829450E+02   -0.95622E-02   -0.11060E-01  9585   0.108E+00    0.343E-01
RMM:  30    -0.408191669264E+02   -0.95840E-02   -0.14551E-01  9634   0.114E+00    0.154E-01
RMM:  31    -0.408309384443E+02   -0.11772E-01   -0.12088E-01  9649   0.103E+00    0.192E-01
RMM:  32    -0.408450452951E+02   -0.14107E-01   -0.14162E-01  9619   0.101E+00    0.343E-01
RMM:  33    -0.408590892112E+02   -0.14044E-01   -0.12831E-01  9598   0.992E-01    0.513E-01
RMM:  34    -0.408787710918E+02   -0.19682E-01   -0.16481E-01  9618   0.990E-01    0.814E-01
RMM:  35    -0.408863986520E+02   -0.76276E-02   -0.13184E-01  9424   0.932E-01    0.871E-01
RMM:  36    -0.409050337962E+02   -0.18635E-01   -0.16423E-01  9527   0.905E-01    0.112E+00
RMM:  37    -0.409219381088E+02   -0.16904E-01   -0.17307E-01  9481   0.877E-01    0.130E+00
RMM:  38    -0.409357688746E+02   -0.13831E-01   -0.16636E-01  9477   0.857E-01    0.142E+00
RMM:  39    -0.409547933024E+02   -0.19024E-01   -0.20091E-01  9445   0.835E-01    0.157E+00
RMM:  40    -0.409749553348E+02   -0.20162E-01   -0.20567E-01  9431   0.816E-01    0.170E+00
RMM:  41    -0.409933219478E+02   -0.18367E-01   -0.18336E-01  9292   0.798E-01    0.184E+00
RMM:  42    -0.410116159491E+02   -0.18294E-01   -0.18738E-01  9177   0.780E-01    0.196E+00
RMM:  43    -0.410306252840E+02   -0.19009E-01   -0.20101E-01  9144   0.763E-01    0.206E+00
RMM:  44    -0.410553440957E+02   -0.24719E-01   -0.22821E-01  9297   0.750E-01    0.218E+00
RMM:  45    -0.410766847291E+02   -0.21341E-01   -0.22765E-01  9285   0.731E-01    0.228E+00
RMM:  46    -0.410953644028E+02   -0.18680E-01   -0.19627E-01  9177   0.717E-01    0.238E+00
RMM:  47    -0.411137294518E+02   -0.18365E-01   -0.19420E-01  9200   0.703E-01    0.247E+00
RMM:  48    -0.411237476237E+02   -0.10018E-01   -0.16683E-01  9240   0.689E-01    0.251E+00
RMM:  49    -0.411301214264E+02   -0.63738E-02   -0.15712E-01  9374   0.681E-01    0.252E+00
RMM:  50    -0.411392408789E+02   -0.91195E-02   -0.14873E-01  9308   0.667E-01    0.253E+00
RMM:  51    -0.411494128901E+02   -0.10172E-01   -0.14279E-01  9290   0.651E-01    0.254E+00
RMM:  52    -0.411606256226E+02   -0.11213E-01   -0.13268E-01  9245   0.636E-01    0.256E+00
RMM:  53    -0.411711949933E+02   -0.10569E-01   -0.12155E-01  8917   0.623E-01    0.257E+00
RMM:  54    -0.411811955090E+02   -0.10001E-01   -0.10596E-01  8851   0.612E-01    0.257E+00
RMM:  55    -0.411815698827E+02   -0.37437E-03   -0.94187E-02  9294   0.620E-01    0.252E+00
RMM:  56    -0.411798640854E+02    0.17058E-02   -0.88771E-02  9336   0.628E-01    0.241E+00
RMM:  57    -0.411853950228E+02   -0.55309E-02   -0.88166E-02  9369   0.612E-01    0.226E+00
RMM:  58    -0.411968737073E+02   -0.11479E-01   -0.75662E-02  9201   0.590E-01    0.223E+00
RMM:  59    -0.412027925198E+02   -0.59188E-02   -0.71791E-02  8894   0.581E-01    0.215E+00
RMM:  60    -0.412164262893E+02   -0.13634E-01   -0.64918E-02  9257   0.573E-01    0.216E+00
RMM:  61    -0.412241034184E+02   -0.76771E-02   -0.59767E-02  9135   0.553E-01    0.215E+00
RMM:  62    -0.412503989551E+02   -0.26296E-01   -0.73268E-02  9298   0.597E-01    0.230E+00
RMM:  63    -0.412578712791E+02   -0.74723E-02   -0.60412E-02  9217   0.546E-01    0.240E+00
RMM:  64    -0.412607512306E+02   -0.28800E-02   -0.57926E-02  9098   0.534E-01    0.245E+00
RMM:  65    -0.412637347858E+02   -0.29836E-02   -0.52983E-02  8799   0.524E-01    0.249E+00
RMM:  66    -0.412733719394E+02   -0.96372E-02   -0.54242E-02  9081   0.518E-01    0.257E+00
RMM:  67    -0.412424714910E+02    0.30900E-01   -0.67001E-02  9550   0.623E-01    0.241E+00
RMM:  68    -0.412478542033E+02   -0.53827E-02   -0.53769E-02  9277   0.528E-01    0.233E+00
RMM:  69    -0.412550234008E+02   -0.71692E-02   -0.56081E-02  9193   0.509E-01    0.227E+00
RMM:  70    -0.412605781962E+02   -0.55548E-02   -0.54168E-02  8905   0.496E-01    0.221E+00
RMM:  71    -0.412655934332E+02   -0.50152E-02   -0.50883E-02  8584   0.488E-01    0.215E+00
RMM:  72    -0.412602358313E+02    0.53576E-02   -0.53804E-02  9174   0.523E-01    0.199E+00
RMM:  73    -0.412659065572E+02   -0.56707E-02   -0.56156E-02  9116   0.490E-01    0.188E+00
RMM:  74    -0.412776253234E+02   -0.11719E-01   -0.45443E-02  9142   0.478E-01    0.188E+00
RMM:  75    -0.412840037144E+02   -0.63784E-02   -0.43591E-02  9020   0.460E-01    0.185E+00
RMM:  76    -0.412841756824E+02   -0.17197E-03   -0.44460E-02  9030   0.465E-01    0.176E+00
RMM:  77    -0.412931077090E+02   -0.89320E-02   -0.43181E-02  9104   0.461E-01    0.175E+00
RMM:  78    -0.412842294273E+02    0.88783E-02   -0.55162E-02  9182   0.530E-01    0.157E+00
RMM:  79    -0.412817328040E+02    0.24966E-02   -0.13406E-01  9143   0.570E-01    0.118E+00
RMM:  80    -0.412880157662E+02   -0.62830E-02   -0.84794E-02  9053   0.515E-01    0.103E+00
RMM:  81    -0.412931956482E+02   -0.51799E-02   -0.11560E-01  9115   0.554E-01    0.837E-01
RMM:  82    -0.413083841778E+02   -0.15189E-01   -0.22928E-01  9131   0.670E-01    0.702E-01
RMM:  83    -0.413223608322E+02   -0.13977E-01   -0.14155E-01  8977   0.572E-01    0.763E-01
RMM:  84    -0.413367000544E+02   -0.14339E-01   -0.15000E-01  9026   0.534E-01    0.861E-01
RMM:  85    -0.413502126113E+02   -0.13513E-01   -0.11842E-01  8984   0.541E-01    0.973E-01
RMM:  86    -0.413602055917E+02   -0.99930E-02   -0.10373E-01  8856   0.512E-01    0.106E+00
RMM:  87    -0.413794980920E+02   -0.19293E-01   -0.12757E-01  8932   0.555E-01    0.122E+00
RMM:  88    -0.414050606186E+02   -0.25563E-01   -0.18326E-01  8906   0.556E-01    0.142E+00
RMM:  89    -0.414262383539E+02   -0.21178E-01   -0.18629E-01  8903   0.522E-01    0.158E+00
RMM:  90    -0.414355497266E+02   -0.93114E-02   -0.98028E-02  8727   0.501E-01    0.163E+00
RMM:  91    -0.414445804444E+02   -0.90307E-02   -0.93579E-02  8560   0.487E-01    0.168E+00
RMM:  92    -0.414417358795E+02    0.28446E-02   -0.95391E-02  8905   0.486E-01    0.165E+00
RMM:  93    -0.414420401987E+02   -0.30432E-03   -0.10966E-01  8908   0.471E-01    0.165E+00
RMM:  94    -0.414496068875E+02   -0.75667E-02   -0.73726E-02  8792   0.446E-01    0.167E+00
RMM:  95    -0.414612690683E+02   -0.11662E-01   -0.65276E-02  8793   0.449E-01    0.170E+00
RMM:  96    -0.414690179187E+02   -0.77489E-02   -0.65532E-02  8588   0.433E-01    0.172E+00
RMM:  97    -0.415903233956E+02   -0.12131E+00   -0.12329E-01  9587   0.112E+00    0.220E+00
RMM:  98    -0.415875837855E+02    0.27396E-02    0.55414E-02  9151   0.643E-01    0.214E+00
RMM:  99    -0.415930279478E+02   -0.54442E-02   -0.48001E-02  9055   0.580E-01    0.215E+00
RMM: 100    -0.415918577613E+02    0.11702E-02    0.74347E-04  8997   0.535E-01
   3 F= -.44695237E+02 E0= -.44694895E+02  d E =0.476056E+02
       N       E                     dE             d eps       ncg     rms          rms(c)
DAV:   1    -0.873700924903E+02   -0.45777E+02   -0.45266E+02  7720   0.316E+00    0.103E+01
RMM:   2    -0.886406422039E+02   -0.12705E+01   -0.65086E+01  6259   0.154E+01    0.568E+00
RMM:   3    -0.895988702830E+02   -0.95823E+00   -0.16027E+01  6927   0.774E+00    0.407E+00
RMM:   4    -0.896498165428E+02   -0.50946E-01   -0.34268E+00  7708   0.436E+00    0.284E+00
RMM:   5    -0.896639155349E+02   -0.14099E-01   -0.14164E+00  8821   0.230E+00    0.253E+00
RMM:   6    -0.896156354873E+02    0.48280E-01   -0.49720E-01  8540   0.148E+00    0.103E+00
RMM:   7    -0.896505396970E+02   -0.34904E-01   -0.39302E-01  9307   0.965E-01    0.397E-01
RMM:   8    -0.896885223706E+02   -0.37983E-01   -0.32948E-01  9420   0.637E-01    0.324E-01
RMM:   9    -0.897294220772E+02   -0.40900E-01   -0.35056E-01  9337   0.493E-01    0.916E-02
RMM:  10    -0.897692444210E+02   -0.39822E-01   -0.36309E-01  9470   0.381E-01    0.926E-02
RMM:  11    -0.898037122596E+02   -0.34468E-01   -0.33071E-01  9402   0.304E-01    0.115E-01
RMM:  12    -0.898343597110E+02   -0.30647E-01   -0.30077E-01  8964   0.252E-01    0.179E-01
RMM:  13    -0.898594212144E+02   -0.25062E-01   -0.25139E-01  8760   0.215E-01    0.167E-01
RMM:  14    -0.898812910531E+02   -0.21870E-01   -0.22287E-01  8642   0.203E-01    0.491E-02
RMM:  15    -0.899027322467E+02   -0.21441E-01   -0.21401E-01  8547   0.164E-01    0.619E-02
RMM:  16    -0.899213342110E+02   -0.18602E-01   -0.18666E-01  8087   0.140E-01    0.811E-02
RMM:  17    -0.899370820683E+02   -0.15748E-01   -0.15903E-01  7762   0.122E-01    0.929E-02
RMM:  18    -0.899483304190E+02   -0.11248E-01   -0.11372E-01  7342   0.108E-01    0.121E-01
RMM:  19    -0.899570769562E+02   -0.87465E-02   -0.88686E-02  6908   0.943E-02    0.134E-01
RMM:  20    -0.899644476906E+02   -0.73707E-02   -0.74586E-02  6556   0.845E-02    0.143E-01
RMM:  21    -0.899702641231E+02   -0.58164E-02   -0.58712E-02  6308   0.782E-02    0.155E-01
RMM:  22    -0.899750007104E+02   -0.47366E-02   -0.48171E-02  6002   0.712E-02    0.159E-01
RMM:  23    -0.899787333912E+02   -0.37327E-02   -0.37648E-02  5511   0.650E-02    0.171E-01
RMM:  24    -0.899816806828E+02   -0.29473E-02   -0.30102E-02  5296   0.605E-02    0.174E-01
RMM:  25    -0.899839973865E+02   -0.23167E-02   -0.23601E-02  4766   0.558E-02    0.179E-01
RMM:  26    -0.899858433779E+02   -0.18460E-02   -0.18891E-02  4514   0.524E-02    0.183E-01
RMM:  27    -0.899873061653E+02   -0.14628E-02   -0.15094E-02  4795   0.499E-02    0.184E-01
RMM:  28    -0.899885420804E+02   -0.12359E-02   -0.12354E-02  4479   0.471E-02    0.190E-01
RMM:  29    -0.899896039920E+02   -0.10619E-02   -0.10318E-02  4561   0.455E-02    0.201E-01
RMM:  30    -0.899904445947E+02   -0.84060E-03   -0.84187E-03  3570   0.426E-02    0.208E-01
RMM:  31    -0.899910812854E+02   -0.63669E-03   -0.68557E-03  4050   0.418E-02    0.207E-01
RMM:  32    -0.899915629469E+02   -0.48166E-03   -0.55389E-03  4028   0.403E-02    0.202E-01
RMM:  33    -0.899920291649E+02   -0.46622E-03   -0.48526E-03  2983   0.381E-02    0.203E-01
RMM:  34    -0.899924342397E+02   -0.40507E-03   -0.41455E-03  3278   0.374E-02    0.206E-01
RMM:  35    -0.899929611638E+02   -0.52692E-03   -0.40655E-03  4503   0.397E-02    0.224E-01
RMM:  36    -0.899932681543E+02   -0.30699E-03   -0.32461E-03  3788   0.361E-02    0.227E-01
RMM:  37    -0.899934827302E+02   -0.21458E-03   -0.27310E-03  3019   0.348E-02    0.224E-01
RMM:  38    -0.899936309749E+02   -0.14824E-03   -0.22763E-03  3544   0.347E-02    0.219E-01
RMM:  39    -0.899936200089E+02    0.10966E-04   -0.17196E-03  4586   0.378E-02    0.200E-01
RMM:  40    -0.899935354081E+02    0.84601E-04   -0.12672E-03  5069   0.401E-02    0.169E-01
RMM:  41    -0.899935528429E+02   -0.17435E-04   -0.12347E-03  4936   0.375E-02    0.148E-01
RMM:  42    -0.899936657084E+02   -0.11287E-03   -0.12742E-03  4077   0.329E-02    0.144E-01
RMM:  43    -0.899937892814E+02   -0.12357E-03   -0.12866E-03  3137   0.306E-02    0.145E-01
RMM:  44    -0.899937984462E+02   -0.91647E-05   -0.96528E-04  4494   0.338E-02    0.129E-01
RMM:  45    -0.899938274779E+02   -0.29032E-04   -0.92204E-04  4486   0.332E-02    0.115E-01
RMM:  46    -0.899938058970E+02    0.21581E-04   -0.71195E-04  4876   0.356E-02    0.914E-02
RMM:  47    -0.899938556083E+02   -0.49711E-04   -0.80159E-04  4381   0.321E-02    0.823E-02
RMM:  48    -0.899939093072E+02   -0.53699E-04   -0.84188E-04  4093   0.306E-02    0.778E-02
RMM:  49    -0.899939527606E+02   -0.43453E-04   -0.78338E-04  3978   0.294E-02    0.716E-02
RMM:  50    -0.899940080141E+02   -0.55253E-04   -0.79511E-04  3077   0.285E-02    0.686E-02
RMM:  51    -0.899940746318E+02   -0.66618E-04   -0.80878E-04  2536   0.278E-02    0.688E-02
RMM:  52    -0.899941221557E+02   -0.47524E-04   -0.71226E-04  3496   0.282E-02    0.648E-02
RMM:  53    -0.899941690173E+02   -0.46862E-04   -0.72621E-04  3050   0.275E-02    0.612E-02
RMM:  54    -0.899942236387E+02   -0.54621E-04   -0.74139E-04  2982   0.272E-02    0.599E-02
RMM:  55    -0.899942817234E+02   -0.58085E-04   -0.74311E-04  2405   0.268E-02    0.597E-02
RMM:  56    -0.899943392825E+02   -0.57559E-04   -0.74097E-04  2311   0.266E-02    0.597E-02
RMM:  57    -0.899943629040E+02   -0.23622E-04   -0.59452E-04  4055   0.285E-02    0.515E-02
RMM:  58    -0.899944371360E+02   -0.74232E-04   -0.75440E-04  3356   0.271E-02    0.557E-02
RMM:  59    -0.899944950652E+02   -0.57929E-04   -0.72425E-04  2140   0.256E-02    0.565E-02
RMM:  60    -0.899945471189E+02   -0.52054E-04   -0.70261E-04  2182   0.256E-02    0.558E-02
RMM:  61    -0.899946115338E+02   -0.64415E-04   -0.74359E-04  2111   0.251E-02    0.580E-02
RMM:  62    -0.899947067641E+02   -0.95230E-04   -0.10730E-03  2286   0.252E-02    0.592E-02
RMM:  63    -0.899947477223E+02   -0.40958E-04   -0.55222E-04  1929   0.246E-02    0.601E-02
RMM:  64    -0.899947890293E+02   -0.41307E-04   -0.55034E-04  1948   0.246E-02    0.612E-02
RMM:  65    -0.899948290501E+02   -0.40021E-04   -0.55622E-04  1852   0.242E-02    0.618E-02
RMM:  66    -0.899948718089E+02   -0.42759E-04   -0.58104E-04  1807   0.240E-02    0.625E-02
RMM:  67    -0.899949221551E+02   -0.50346E-04   -0.63662E-04  1905   0.239E-02    0.640E-02
RMM:  68    -0.899949706330E+02   -0.48478E-04   -0.66815E-04  1933   0.240E-02    0.640E-02
RMM:  69    -0.899950158576E+02   -0.45225E-04   -0.68220E-04  2337   0.239E-02    0.626E-02
RMM:  70    -0.899950596536E+02   -0.43796E-04   -0.67667E-04  2230   0.237E-02    0.612E-02
RMM:  71    -0.899951139601E+02   -0.54307E-04   -0.70123E-04  1961   0.235E-02    0.617E-02
RMM:  72    -0.899951485577E+02   -0.34598E-04   -0.64793E-04  3478   0.247E-02    0.579E-02
RMM:  73    -0.899951880131E+02   -0.39455E-04   -0.66270E-04  2912   0.241E-02    0.552E-02
RMM:  74    -0.899952311025E+02   -0.43089E-04   -0.65867E-04  3018   0.243E-02    0.539E-02
RMM:  75    -0.899952837569E+02   -0.52654E-04   -0.68006E-04  2022   0.239E-02    0.546E-02
RMM:  76    -0.899953279405E+02   -0.44184E-04   -0.65534E-04  2579   0.244E-02    0.539E-02
RMM:  77    -0.899953026518E+02    0.25289E-04   -0.52326E-04  5229   0.336E-02    0.353E-02
RMM:  78    -0.899953423951E+02   -0.39743E-04   -0.54711E-04  4400   0.285E-02    0.369E-02
RMM:  79    -0.899953894810E+02   -0.47086E-04   -0.62738E-04  3678   0.249E-02    0.381E-02
RMM:  80    -0.899954312048E+02   -0.41724E-04   -0.58020E-04  3067   0.241E-02    0.390E-02
RMM:  81    -0.899954772720E+02   -0.46067E-04   -0.62114E-04  2157   0.236E-02    0.399E-02
RMM:  82    -0.899955323176E+02   -0.55046E-04   -0.64745E-04  2550   0.241E-02    0.426E-02
RMM:  83    -0.899955817759E+02   -0.49458E-04   -0.64525E-04  2595   0.240E-02    0.432E-02
RMM:  84    -0.899956262531E+02   -0.44477E-04   -0.61568E-04  2180   0.238E-02    0.435E-02
RMM:  85    -0.899956719679E+02   -0.45715E-04   -0.61154E-04  2045   0.231E-02    0.445E-02
RMM:  86    -0.899957143591E+02   -0.42391E-04   -0.59824E-04  1874   0.229E-02    0.452E-02
RMM:  87    -0.899957425273E+02   -0.28168E-04   -0.59414E-04  4083   0.290E-02    0.414E-02
RMM:  88    -0.899957794286E+02   -0.36901E-04   -0.56202E-04  3395   0.241E-02    0.412E-02
RMM:  89    -0.899958166487E+02   -0.37220E-04   -0.56038E-04  2920   0.237E-02    0.421E-02
RMM:  90    -0.899958555816E+02   -0.38933E-04   -0.56137E-04  2049   0.232E-02    0.429E-02
RMM:  91    -0.899958955626E+02   -0.39981E-04   -0.56067E-04  2066   0.230E-02    0.445E-02
RMM:  92    -0.899959345915E+02   -0.39029E-04   -0.54357E-04  2856   0.235E-02    0.463E-02
RMM:  93    -0.899959723674E+02   -0.37776E-04   -0.55311E-04  2195   0.224E-02    0.474E-02
RMM:  94    -0.899960127855E+02   -0.40418E-04   -0.56560E-04  2190   0.226E-02    0.484E-02
RMM:  95    -0.899960600743E+02   -0.47289E-04   -0.58443E-04  3181   0.229E-02    0.502E-02
RMM:  96    -0.899961074824E+02   -0.47408E-04   -0.57874E-04  3497   0.234E-02    0.523E-02
RMM:  97    -0.899961381457E+02   -0.30663E-04   -0.52479E-04  2167   0.225E-02    0.518E-02
RMM:  98    -0.899961718990E+02   -0.33753E-04   -0.53242E-04  1921   0.223E-02    0.520E-02
RMM:  99    -0.899962069853E+02   -0.35086E-04   -0.53526E-04  1909   0.223E-02    0.521E-02
RMM: 100    -0.899962404892E+02   -0.33504E-04   -0.52408E-04  2181   0.223E-02
   4 F= -.93100215E+02 E0= -.93099668E+02  d E =-.799396E+00
       N       E                     dE             d eps       ncg     rms          rms(c)
DAV:   1    -0.910326831494E+02   -0.10365E+01   -0.35049E+01  6048   0.931E+00    0.305E+00
RMM:   2    -0.922330153239E+02   -0.12003E+01   -0.41933E+00  6260   0.381E+00    0.667E+00
RMM:   3    -0.911300894370E+02    0.11029E+01   -0.71842E-01  6360   0.196E+00    0.129E+00
RMM:   4    -0.911385141618E+02   -0.84247E-02   -0.18425E-01  7089   0.825E-01    0.889E-01
RMM:   5    -0.911302049120E+02    0.83092E-02   -0.48143E-02  7460   0.376E-01    0.593E-01
RMM:   6    -0.911293314545E+02    0.87346E-03   -0.27273E-02  7634   0.223E-01    0.222E-01
RMM:   7    -0.911304677154E+02   -0.11363E-02   -0.16233E-02  7267   0.148E-01    0.764E-02
RMM:   8    -0.911314279191E+02   -0.96020E-03   -0.98134E-03  6128   0.829E-02    0.587E-02
RMM:   9    -0.911322039022E+02   -0.77598E-03   -0.72859E-03  5686   0.557E-02    0.186E-02
RMM:  10    -0.911328217400E+02   -0.61784E-03   -0.57164E-03  5536   0.402E-02    0.105E-02
RMM:  11    -0.911333356946E+02   -0.51395E-03   -0.46224E-03  5326   0.305E-02    0.769E-03
RMM:  12    -0.911337677402E+02   -0.43205E-03   -0.37476E-03  5152   0.248E-02    0.436E-03
RMM:  13    -0.911341355398E+02   -0.36780E-03   -0.31739E-03  4963   0.204E-02    0.224E-03
RMM:  14    -0.911344098105E+02   -0.27427E-03   -0.25918E-03  4196   0.167E-02    0.471E-03
RMM:  15    -0.911346397643E+02   -0.22995E-03   -0.22228E-03  3463   0.145E-02    0.515E-03
RMM:  16    -0.911348225058E+02   -0.18274E-03   -0.17972E-03  3319   0.129E-02    0.668E-03
RMM:  17    -0.911349832720E+02   -0.16077E-03   -0.15814E-03  3055   0.116E-02    0.137E-02
RMM:  18    -0.911351151076E+02   -0.13184E-03   -0.12860E-03  3456   0.111E-02    0.871E-03
RMM:  19    -0.911352310011E+02   -0.11589E-03   -0.11461E-03  3391   0.101E-02    0.549E-03
RMM:  20    -0.911353270928E+02   -0.96092E-04   -0.95713E-04  2741   0.946E-03    0.641E-03
RMM:  21    -0.911354129590E+02   -0.85866E-04   -0.86327E-04  2526   0.884E-03    0.901E-03
RMM:  22    -0.911354862851E+02   -0.73326E-04   -0.73590E-04  2395   0.819E-03    0.116E-02
RMM:  23    -0.911355515956E+02   -0.65311E-04   -0.66191E-04  2367   0.794E-03    0.137E-02
RMM:  24    -0.911356082093E+02   -0.56614E-04   -0.57423E-04  2320   0.750E-03    0.156E-02
RMM:  25    -0.911356584764E+02   -0.50267E-04   -0.51292E-04  2249   0.720E-03    0.174E-02
RMM:  26    -0.911357029225E+02   -0.44446E-04   -0.45582E-04  2254   0.723E-03    0.193E-02
RMM:  27    -0.911357421743E+02   -0.39252E-04   -0.40317E-04  2172   0.693E-03    0.212E-02
RMM:  28    -0.911357758306E+02   -0.33656E-04   -0.35263E-04  2196   0.695E-03    0.231E-02
RMM:  29    -0.911358061794E+02   -0.30349E-04   -0.31691E-04  2140   0.657E-03    0.247E-02
RMM:  30    -0.911358337838E+02   -0.27604E-04   -0.28975E-04  2060   0.636E-03    0.262E-02
RMM:  31    -0.911358578880E+02   -0.24104E-04   -0.25301E-04  2093   0.640E-03    0.278E-02
RMM:  32    -0.911358796029E+02   -0.21715E-04   -0.23294E-04  2040   0.601E-03    0.289E-02
RMM:  33    -0.911358986514E+02   -0.19048E-04   -0.20178E-04  1990   0.592E-03    0.303E-02
RMM:  34    -0.911359162855E+02   -0.17634E-04   -0.18762E-04  1920   0.566E-03    0.316E-02
RMM:  35    -0.911359313219E+02   -0.15036E-04   -0.16265E-04  1982   0.567E-03    0.329E-02
RMM:  36    -0.911359453860E+02   -0.14064E-04   -0.15083E-04  1887   0.560E-03    0.342E-02
RMM:  37    -0.911359574284E+02   -0.12042E-04   -0.13346E-04  1924   0.563E-03    0.353E-02
RMM:  38    -0.911359683056E+02   -0.10877E-04   -0.12013E-04  1878   0.540E-03    0.365E-02
RMM:  39    -0.911359778911E+02   -0.95855E-05   -0.10699E-04  1901   0.541E-03    0.376E-02
RMM:  40    -0.911359864437E+02   -0.85526E-05   -0.97130E-05  1864   0.539E-03
   5 F= -.94241712E+02 E0= -.94238580E+02  d E =-.194089E+01
       N       E                     dE             d eps       ncg     rms          rms(c)
DAV:   1    -0.134957682489E+02    0.77640E+02   -0.22434E+03  5840   0.155E+02    0.357E+01
RMM:   2    -0.381367140659E+02   -0.24641E+02   -0.26253E+02  6423   0.564E+01    0.894E+01
RMM:   3    -0.432269029798E+02   -0.50902E+01   -0.92406E+01  7012   0.196E+01    0.216E+01
RMM:   4    -0.353130666733E+02    0.79138E+01   -0.13834E+01  6906   0.114E+01    0.152E+01
RMM:   5    -0.318445123436E+02    0.34686E+01   -0.67629E+00  8230   0.580E+00    0.134E+01
RMM:   6    -0.293565295415E+02    0.24880E+01   -0.60473E+00  9006   0.503E+00    0.108E+01
RMM:   7    -0.278485170962E+02    0.15080E+01   -0.89021E+00  8583   0.568E+00    0.969E+00
RMM:   8    -0.279194760210E+02   -0.70959E-01   -0.33701E+00  8693   0.337E+00    0.117E+01
RMM:   9    -0.280919152710E+02   -0.17244E+00   -0.17539E+00  9357   0.226E+00    0.150E+01
RMM:  10    -0.282059618498E+02   -0.11405E+00   -0.10967E+00  9078   0.174E+00    0.215E+01
RMM:  11    -0.283383017255E+02   -0.13234E+00   -0.94854E-01  9412   0.148E+00    0.286E+01
RMM:  12    -0.283533979165E+02   -0.15096E-01   -0.47786E-01  9512   0.114E+00    0.234E+01
RMM:  13    -0.284869684983E+02   -0.13357E+00   -0.50065E-01  9334   0.113E+00    0.307E+01
RMM:  14    -0.284544868456E+02    0.32482E-01   -0.28839E-01  8969   0.888E-01    0.256E+01
RMM:  15    -0.283801160842E+02    0.74371E-01   -0.26782E-01  8872   0.822E-01    0.185E+01
RMM:  16    -0.283343184808E+02    0.45798E-01   -0.22374E-01  8813   0.702E-01    0.116E+01
RMM:  17    -0.283256494430E+02    0.86690E-02   -0.18058E-01  8813   0.548E-01    0.897E+00
RMM:  18    -0.283228421266E+02    0.28073E-02   -0.15749E-01  8812   0.476E-01    0.744E+00
RMM:  19    -0.283120622977E+02    0.10780E-01   -0.17806E-01  8972   0.545E-01    0.459E+00
RMM:  20    -0.283180329369E+02   -0.59706E-02   -0.19338E-01  8974   0.567E-01    0.599E-01
RMM:  21    -0.283303689556E+02   -0.12336E-01   -0.11996E-01  8448   0.374E-01    0.187E-01
RMM:  22    -0.283411537209E+02   -0.10785E-01   -0.10750E-01  8134   0.302E-01    0.223E-01
RMM:  23    -0.283514730269E+02   -0.10319E-01   -0.10410E-01  7774   0.262E-01    0.287E-01
RMM:  24    -0.283633692197E+02   -0.11896E-01   -0.12134E-01  7700   0.235E-01    0.357E-01
RMM:  25    -0.283697206572E+02   -0.63514E-02   -0.66886E-02  7629   0.218E-01    0.329E-01
RMM:  26    -0.283748820663E+02   -0.51614E-02   -0.52519E-02  7284   0.197E-01    0.348E-01
RMM:  27    -0.283790914273E+02   -0.42094E-02   -0.45724E-02  7074   0.183E-01    0.432E-01
RMM:  28    -0.283832354180E+02   -0.41440E-02   -0.38325E-02  7307   0.181E-01    0.327E-01
RMM:  29    -0.283865058658E+02   -0.32704E-02   -0.32330E-02  6843   0.163E-01    0.311E-01
RMM:  30    -0.283897990305E+02   -0.32932E-02   -0.33937E-02  6586   0.153E-01    0.344E-01
RMM:  31    -0.283927043941E+02   -0.29054E-02   -0.30354E-02  6310   0.145E-01    0.367E-01
RMM:  32    -0.283961322085E+02   -0.34278E-02   -0.36473E-02  6574   0.141E-01    0.423E-01
RMM:  33    -0.283988746965E+02   -0.27425E-02   -0.28532E-02  6250   0.134E-01    0.429E-01
RMM:  34    -0.284020029329E+02   -0.31282E-02   -0.29356E-02  6568   0.133E-01    0.379E-01
RMM:  35    -0.284038668501E+02   -0.18639E-02   -0.18716E-02  6463   0.127E-01    0.352E-01
RMM:  36    -0.284052928531E+02   -0.14260E-02   -0.15124E-02  5497   0.119E-01    0.362E-01
RMM:  37    -0.284067357478E+02   -0.14429E-02   -0.14869E-02  6157   0.120E-01    0.368E-01
RMM:  38    -0.284078382791E+02   -0.11025E-02   -0.12362E-02  5838   0.115E-01    0.391E-01
RMM:  39    -0.284090186599E+02   -0.11804E-02   -0.12976E-02  5777   0.113E-01    0.412E-01
RMM:  40    -0.284100084770E+02   -0.98982E-03   -0.11158E-02  5881   0.111E-01    0.435E-01
RMM:  41    -0.284112572997E+02   -0.12488E-02   -0.13017E-02  5694   0.107E-01    0.441E-01
RMM:  42    -0.284127733841E+02   -0.15161E-02   -0.16701E-02  5615   0.105E-01    0.470E-01
RMM:  43    -0.284141738235E+02   -0.14004E-02   -0.15896E-02  5039   0.103E-01    0.498E-01
RMM:  44    -0.284154342952E+02   -0.12605E-02   -0.13822E-02  4832   0.997E-02    0.511E-01
RMM:  45    -0.284160700285E+02   -0.63573E-03   -0.82799E-03  4930   0.986E-02    0.530E-01
RMM:  46    -0.284176488062E+02   -0.15788E-02   -0.16808E-02  4645   0.966E-02    0.556E-01
RMM:  47    -0.284183893047E+02   -0.74050E-03   -0.93970E-03  4944   0.954E-02    0.573E-01
RMM:  48    -0.284190318179E+02   -0.64251E-03   -0.71734E-03  4342   0.929E-02    0.578E-01
RMM:  49    -0.284196299050E+02   -0.59809E-03   -0.67988E-03  4404   0.915E-02    0.589E-01
RMM:  50    -0.284201170028E+02   -0.48710E-03   -0.54993E-03  4285   0.905E-02    0.597E-01
RMM:  51    -0.284207247349E+02   -0.60773E-03   -0.60162E-03  4252   0.885E-02    0.596E-01
RMM:  52    -0.284215420333E+02   -0.81730E-03   -0.48318E-03  5598   0.927E-02    0.549E-01
RMM:  53    -0.284222518587E+02   -0.70983E-03   -0.59504E-03  4750   0.876E-02    0.537E-01
RMM:  54    -0.284226600016E+02   -0.40814E-03   -0.41314E-03  4056   0.848E-02    0.537E-01
RMM:  55    -0.284231148119E+02   -0.45481E-03   -0.50674E-03  3887   0.840E-02    0.548E-01
RMM:  56    -0.284235309216E+02   -0.41611E-03   -0.37596E-03  4362   0.845E-02    0.543E-01
RMM:  57    -0.284240400592E+02   -0.50914E-03   -0.40017E-03  4806   0.851E-02    0.532E-01
RMM:  58    -0.284244671987E+02   -0.42714E-03   -0.35203E-03  4680   0.833E-02    0.519E-01
RMM:  59    -0.284247838138E+02   -0.31662E-03   -0.36243E-03  4541   0.812E-02    0.516E-01
RMM:  60    -0.284250736723E+02   -0.28986E-03   -0.32009E-03  4300   0.803E-02    0.514E-01
RMM:  61    -0.284252611742E+02   -0.18750E-03   -0.32487E-03  4037   0.787E-02    0.519E-01
RMM:  62    -0.284254933264E+02   -0.23215E-03   -0.29973E-03  4429   0.786E-02    0.511E-01
RMM:  63    -0.284257676578E+02   -0.27433E-03   -0.29994E-03  3737   0.768E-02    0.520E-01
RMM:  64    -0.284260708756E+02   -0.30322E-03   -0.29058E-03  3819   0.764E-02    0.520E-01
RMM:  65    -0.284263272963E+02   -0.25642E-03   -0.30181E-03  3673   0.757E-02    0.526E-01
RMM:  66    -0.284265452746E+02   -0.21798E-03   -0.30676E-03  3817   0.749E-02    0.531E-01
RMM:  67    -0.284272373165E+02   -0.69204E-03   -0.34614E-03  5120   0.790E-02    0.521E-01
RMM:  68    -0.284276978625E+02   -0.46055E-03   -0.39172E-03  3917   0.748E-02    0.535E-01
RMM:  69    -0.284280003693E+02   -0.30251E-03   -0.48430E-03  4098   0.737E-02    0.530E-01
RMM:  70    -0.284283552837E+02   -0.35491E-03   -0.63045E-03  4174   0.741E-02    0.532E-01
RMM:  71    -0.284295910710E+02   -0.12358E-02   -0.87331E-03  4566   0.775E-02    0.574E-01
RMM:  72    -0.284318307961E+02   -0.22397E-02   -0.11571E-02  5999   0.920E-02    0.600E-01
RMM:  73    -0.284331384409E+02   -0.13076E-02   -0.12096E-02  5293   0.784E-02    0.637E-01
RMM:  74    -0.284340582885E+02   -0.91985E-03   -0.11450E-02  4108   0.739E-02    0.653E-01
RMM:  75    -0.284349018345E+02   -0.84355E-03   -0.93114E-03  3851   0.745E-02    0.674E-01
RMM:  76    -0.284355144619E+02   -0.61263E-03   -0.72669E-03  3949   0.745E-02    0.690E-01
RMM:  77    -0.284356457963E+02   -0.13133E-03   -0.34259E-03  4352   0.732E-02    0.676E-01
RMM:  78    -0.284360400258E+02   -0.39423E-03   -0.46543E-03  3460   0.700E-02    0.689E-01
RMM:  79    -0.284362001669E+02   -0.16014E-03   -0.23628E-03  3346   0.685E-02    0.698E-01
RMM:  80    -0.284365483030E+02   -0.34814E-03   -0.40410E-03  3411   0.696E-02    0.709E-01
RMM:  81    -0.284366632454E+02   -0.11494E-03   -0.23660E-03  3452   0.688E-02    0.715E-01
RMM:  82    -0.284372823256E+02   -0.61908E-03   -0.23967E-03  3756   0.705E-02    0.734E-01
RMM:  83    -0.284370690476E+02    0.21328E-03   -0.18778E-03  3857   0.684E-02    0.726E-01
RMM:  84    -0.284366925469E+02    0.37650E-03   -0.25446E-03  4568   0.689E-02    0.706E-01
RMM:  85    -0.284366426670E+02    0.49880E-04   -0.15510E-03  3732   0.658E-02    0.705E-01
RMM:  86    -0.284368233327E+02   -0.18067E-03   -0.16570E-03  3281   0.646E-02    0.716E-01
RMM:  87    -0.284345418568E+02    0.22815E-02   -0.17880E-03  5948   0.904E-02    0.576E-01
RMM:  88    -0.284346904205E+02   -0.14856E-03   -0.95196E-04  5481   0.649E-02    0.579E-01
RMM:  89    -0.284347339944E+02   -0.43574E-04   -0.85208E-04  4269   0.611E-02    0.578E-01
RMM:  90    -0.284347363728E+02   -0.23784E-05   -0.78893E-04  3679   0.599E-02    0.576E-01
RMM:  91    -0.284347122985E+02    0.24074E-04   -0.64139E-04  3943   0.612E-02    0.574E-01
RMM:  92    -0.284329661393E+02    0.17462E-02   -0.26074E-03  6183   0.950E-02    0.434E-01
RMM:  93    -0.284331506845E+02   -0.18455E-03   -0.11508E-03  5512   0.679E-02    0.431E-01
RMM:  94    -0.284332600999E+02   -0.10942E-03   -0.12864E-03  4656   0.643E-02    0.419E-01
RMM:  95    -0.284332832700E+02   -0.23170E-04   -0.11695E-03  4445   0.640E-02    0.397E-01
RMM:  96    -0.284332287470E+02    0.54523E-04   -0.12658E-03  4606   0.659E-02    0.376E-01
RMM:  97    -0.284327061856E+02    0.52256E-03   -0.21351E-03  5859   0.828E-02    0.296E-01
RMM:  98    -0.284328253881E+02   -0.11920E-03   -0.20084E-03  5151   0.693E-02    0.275E-01
RMM:  99    -0.284329860532E+02   -0.16067E-03   -0.18438E-03  3904   0.658E-02    0.265E-01
RMM: 100    -0.284331330904E+02   -0.14704E-03   -0.17459E-03  3500   0.653E-02
   6 F= -.31553557E+02 E0= -.31552416E+02  d E =0.607473E+02
       N       E                     dE             d eps       ncg     rms          rms(c)
DAV:   1    -0.509342141325E+02   -0.22501E+02   -0.12163E+03  6208   0.104E+02    0.361E+01
RMM:   2    -0.650001772602E+02   -0.14066E+02   -0.21074E+02  6398   0.487E+01    0.104E+02
RMM:   3    -0.658185885250E+02   -0.81841E+00   -0.52512E+01  6992   0.158E+01    0.197E+01
RMM:   4    -0.562180601039E+02    0.96005E+01   -0.34446E+01  6601   0.134E+01    0.161E+01
RMM:   5    -0.473008260978E+02    0.89172E+01   -0.30775E+00  7153   0.649E+00    0.937E+00
RMM:   6    -0.460050822855E+02    0.12957E+01   -0.49386E+00  7991   0.495E+00    0.657E+00
RMM:   7    -0.457788180088E+02    0.22626E+00   -0.32103E+00  8609   0.324E+00    0.438E+00
RMM:   8    -0.455933819433E+02    0.18544E+00   -0.12458E+00  8665   0.227E+00    0.281E+00
RMM:   9    -0.456402388951E+02   -0.46857E-01   -0.73733E-01  8170   0.160E+00    0.271E+00
RMM:  10    -0.456761820945E+02   -0.35943E-01   -0.38931E-01  9220   0.116E+00    0.303E+00
RMM:  11    -0.456983330676E+02   -0.22151E-01   -0.24326E-01  9303   0.861E-01    0.345E+00
RMM:  12    -0.457153892724E+02   -0.17056E-01   -0.18249E-01  9357   0.676E-01    0.409E+00
RMM:  13    -0.457276992964E+02   -0.12310E-01   -0.12301E-01  9040   0.549E-01    0.450E+00
RMM:  14    -0.457377440940E+02   -0.10045E-01   -0.10022E-01  8487   0.473E-01    0.378E+00
RMM:  15    -0.457463523212E+02   -0.86082E-02   -0.78144E-02  8313   0.410E-01    0.534E+00
RMM:  16    -0.457529705253E+02   -0.66182E-02   -0.63401E-02  7832   0.355E-01    0.572E+00
RMM:  17    -0.457579264877E+02   -0.49560E-02   -0.52836E-02  7479   0.311E-01    0.560E+00
RMM:  18    -0.457616134995E+02   -0.36870E-02   -0.45429E-02  7238   0.279E-01    0.499E+00
RMM:  19    -0.457644551854E+02   -0.28417E-02   -0.39895E-02  7245   0.253E-01    0.418E+00
RMM:  20    -0.457665927025E+02   -0.21375E-02   -0.35542E-02  7149   0.227E-01    0.335E+00
RMM:  21    -0.457682644069E+02   -0.16717E-02   -0.31690E-02  7069   0.213E-01    0.236E+00
RMM:  22    -0.457701802444E+02   -0.19158E-02   -0.29408E-02  7243   0.204E-01    0.152E+00
RMM:  23    -0.457724459277E+02   -0.22657E-02   -0.27078E-02  7225   0.198E-01    0.739E-01
RMM:  24    -0.457748929950E+02   -0.24471E-02   -0.24783E-02  6924   0.182E-01    0.156E-01
RMM:  25    -0.457771759826E+02   -0.22830E-02   -0.21896E-02  6631   0.152E-01    0.688E-02
RMM:  26    -0.457790976659E+02   -0.19217E-02   -0.18953E-02  6426   0.138E-01    0.545E-02
RMM:  27    -0.457808098669E+02   -0.17122E-02   -0.16815E-02  6178   0.126E-01    0.739E-02
RMM:  28    -0.457821310822E+02   -0.13212E-02   -0.13501E-02  5967   0.118E-01    0.842E-02
RMM:  29    -0.457832453154E+02   -0.11142E-02   -0.11468E-02  5731   0.111E-01    0.102E-01
RMM:  30    -0.457842488744E+02   -0.10036E-02   -0.10271E-02  5761   0.106E-01    0.110E-01
RMM:  31    -0.457851458342E+02   -0.89696E-03   -0.93117E-03  5510   0.102E-01    0.121E-01
RMM:  32    -0.457859335204E+02   -0.78769E-03   -0.82864E-03  5217   0.976E-02    0.136E-01
RMM:  33    -0.457866575036E+02   -0.72398E-03   -0.76195E-03  5063   0.936E-02    0.144E-01
RMM:  34    -0.457873117846E+02   -0.65428E-03   -0.68376E-03  5169   0.912E-02    0.148E-01
RMM:  35    -0.457879217562E+02   -0.60997E-03   -0.62663E-03  5446   0.888E-02    0.144E-01
RMM:  36    -0.457884724811E+02   -0.55072E-03   -0.57661E-03  5175   0.862E-02    0.148E-01
RMM:  37    -0.457889520790E+02   -0.47960E-03   -0.53055E-03  4571   0.833E-02    0.163E-01
RMM:  38    -0.457894071151E+02   -0.45504E-03   -0.49884E-03  4492   0.815E-02    0.168E-01
RMM:  39    -0.457898200011E+02   -0.41289E-03   -0.46537E-03  4486   0.806E-02    0.180E-01
RMM:  40    -0.457902071090E+02   -0.38711E-03   -0.44099E-03  4339   0.784E-02    0.191E-01
RMM:  41    -0.457905711971E+02   -0.36409E-03   -0.41654E-03  4229   0.763E-02    0.198E-01
RMM:  42    -0.457909203187E+02   -0.34912E-03   -0.39486E-03  4343   0.748E-02    0.201E-01
RMM:  43    -0.457912455325E+02   -0.32521E-03   -0.37448E-03  4221   0.725E-02    0.203E-01
RMM:  44    -0.457915516850E+02   -0.30615E-03   -0.35808E-03  3961   0.713E-02    0.211E-01
RMM:  45    -0.457918383876E+02   -0.28670E-03   -0.34245E-03  3943   0.696E-02    0.216E-01
RMM:  46    -0.457921132865E+02   -0.27490E-03   -0.33052E-03  3912   0.690E-02    0.224E-01
RMM:  47    -0.457923760689E+02   -0.26278E-03   -0.31858E-03  3910   0.677E-02    0.228E-01
RMM:  48    -0.457926303128E+02   -0.25424E-03   -0.30985E-03  3845   0.672E-02    0.235E-01
RMM:  49    -0.457928734982E+02   -0.24319E-03   -0.30126E-03  3690   0.656E-02    0.242E-01
RMM:  50    -0.457931104559E+02   -0.23696E-03   -0.29497E-03  3717   0.648E-02    0.250E-01
RMM:  51    -0.457933419970E+02   -0.23154E-03   -0.28930E-03  3664   0.639E-02    0.258E-01
RMM:  52    -0.457935670076E+02   -0.22501E-03   -0.28487E-03  3746   0.635E-02    0.266E-01
RMM:  53    -0.457937874265E+02   -0.22042E-03   -0.28077E-03  3696   0.627E-02    0.273E-01
RMM:  54    -0.457940034544E+02   -0.21603E-03   -0.27781E-03  3661   0.620E-02    0.279E-01
RMM:  55    -0.457942164572E+02   -0.21300E-03   -0.27508E-03  3594   0.615E-02    0.285E-01
RMM:  56    -0.457944267601E+02   -0.21030E-03   -0.27350E-03  3670   0.611E-02    0.293E-01
RMM:  57    -0.457946321753E+02   -0.20542E-03   -0.27133E-03  3744   0.608E-02    0.297E-01
RMM:  58    -0.457948382474E+02   -0.20607E-03   -0.27081E-03  3657   0.600E-02    0.303E-01
RMM:  59    -0.457950400238E+02   -0.20178E-03   -0.27005E-03  3644   0.595E-02    0.310E-01
RMM:  60    -0.457952418363E+02   -0.20181E-03   -0.27022E-03  3620   0.590E-02    0.316E-01
RMM:  61    -0.457954412681E+02   -0.19943E-03   -0.27027E-03  3606   0.587E-02    0.323E-01
RMM:  62    -0.457956530755E+02   -0.21181E-03   -0.27197E-03  3752   0.586E-02    0.332E-01
RMM:  63    -0.457958520570E+02   -0.19898E-03   -0.27303E-03  3595   0.577E-02    0.340E-01
RMM:  64    -0.457960542769E+02   -0.20222E-03   -0.27343E-03  3743   0.579E-02    0.348E-01
RMM:  65    -0.457962548726E+02   -0.20060E-03   -0.27419E-03  3706   0.575E-02    0.355E-01
RMM:  66    -0.457964542943E+02   -0.19942E-03   -0.27472E-03  3663   0.571E-02    0.362E-01
RMM:  67    -0.457966932826E+02   -0.23899E-03   -0.27454E-03  4054   0.566E-02    0.361E-01
RMM:  68    -0.457969073229E+02   -0.21404E-03   -0.27432E-03  3926   0.566E-02    0.355E-01
RMM:  69    -0.457971205449E+02   -0.21322E-03   -0.27389E-03  4122   0.562E-02    0.352E-01
RMM:  70    -0.457973247094E+02   -0.20416E-03   -0.27277E-03  3610   0.554E-02    0.356E-01
RMM:  71    -0.457975152738E+02   -0.19056E-03   -0.27172E-03  3576   0.553E-02    0.364E-01
RMM:  72    -0.457977410721E+02   -0.22580E-03   -0.27015E-03  4364   0.563E-02    0.353E-01
RMM:  73    -0.457979853948E+02   -0.24432E-03   -0.26858E-03  4447   0.558E-02    0.343E-01
RMM:  74    -0.457981947115E+02   -0.20932E-03   -0.26518E-03  3849   0.540E-02    0.347E-01
RMM:  75    -0.457983800313E+02   -0.18532E-03   -0.26205E-03  3512   0.537E-02    0.354E-01
RMM:  76    -0.457985541666E+02   -0.17414E-03   -0.25780E-03  3489   0.538E-02    0.363E-01
RMM:  77    -0.457987444086E+02   -0.19024E-03   -0.25343E-03  3638   0.546E-02    0.361E-01
RMM:  78    -0.457989119954E+02   -0.16759E-03   -0.24832E-03  3599   0.539E-02    0.369E-01
RMM:  79    -0.457990769554E+02   -0.16496E-03   -0.24310E-03  3574   0.533E-02    0.375E-01
RMM:  80    -0.457992263573E+02   -0.14940E-03   -0.23733E-03  3588   0.529E-02    0.383E-01
RMM:  81    -0.457993719603E+02   -0.14560E-03   -0.23175E-03  3518   0.524E-02    0.390E-01
RMM:  82    -0.457994937613E+02   -0.12180E-03   -0.22242E-03  4173   0.529E-02    0.391E-01
RMM:  83    -0.457996175623E+02   -0.12380E-03   -0.19711E-03  3462   0.521E-02    0.393E-01
RMM:  84    -0.457997209104E+02   -0.10335E-03   -0.17999E-03  3684   0.517E-02    0.398E-01
RMM:  85    -0.457998066810E+02   -0.85771E-04   -0.16704E-03  3470   0.517E-02    0.403E-01
RMM:  86    -0.457998842278E+02   -0.77547E-04   -0.15528E-03  3456   0.515E-02    0.408E-01
RMM:  87    -0.457999517756E+02   -0.67548E-04   -0.12737E-03  3669   0.514E-02    0.408E-01
RMM:  88    -0.457999917982E+02   -0.40023E-04   -0.10939E-03  3537   0.505E-02    0.412E-01
RMM:  89    -0.458000183647E+02   -0.26566E-04   -0.90575E-04  3342   0.501E-02    0.415E-01
RMM:  90    -0.458000499687E+02   -0.31604E-04   -0.10049E-03  3368   0.496E-02    0.419E-01
RMM:  91    -0.458000625359E+02   -0.12567E-04   -0.82369E-04  3548   0.496E-02    0.424E-01
RMM:  92    -0.458000840861E+02   -0.21550E-04   -0.95352E-04  4386   0.506E-02    0.426E-01
RMM:  93    -0.458001137108E+02   -0.29625E-04   -0.75652E-04  3802   0.494E-02    0.422E-01
RMM:  94    -0.458001478472E+02   -0.34136E-04   -0.89756E-04  3424   0.491E-02    0.425E-01
RMM:  95    -0.458001580988E+02   -0.10252E-04   -0.69816E-04  3409   0.493E-02    0.426E-01
RMM:  96    -0.458001860615E+02   -0.27963E-04   -0.85233E-04  3330   0.486E-02    0.429E-01
RMM:  97    -0.458001947804E+02   -0.87188E-05   -0.66736E-04  4655   0.521E-02    0.425E-01
RMM:  98    -0.458002394845E+02   -0.44704E-04   -0.82990E-04  3457   0.483E-02    0.426E-01
RMM:  99    -0.458002814883E+02   -0.42004E-04   -0.63751E-04  4267   0.498E-02    0.419E-01
RMM: 100    -0.458003329804E+02   -0.51492E-04   -0.79884E-04  4231   0.502E-02
   7 F= -.48906350E+02 E0= -.48908366E+02  d E =0.433945E+02
       N       E                     dE             d eps       ncg     rms          rms(c)
DAV:   1     0.818244990957E+01    0.53983E+02   -0.22877E+03  6336   0.980E+01    0.219E+01
RMM:   2    -0.147220464488E+02   -0.22904E+02   -0.25526E+02  6615   0.690E+01    0.200E+01
RMM:   3    -0.742368732916E+01    0.72984E+01   -0.75789E+01  6992   0.208E+01    0.168E+01
RMM:   4    -0.224119518076E+01    0.51825E+01   -0.15694E+01  8106   0.989E+00    0.130E+01
RMM:   5    -0.360213877453E+01   -0.13609E+01   -0.78740E+00  8946   0.554E+00    0.128E+01
RMM:   6    -0.200377906112E+01    0.15984E+01   -0.29372E+00  8780   0.355E+00    0.949E+00
RMM:   7    -0.627118180109E+00    0.13767E+01   -0.35661E+00  8539   0.369E+00    0.413E+00
RMM:   8    -0.571344773445E+00    0.55773E-01   -0.29106E+00  9028   0.322E+00    0.397E+00
RMM:   9    -0.627589173502E+00   -0.56244E-01   -0.10756E+00  9169   0.190E+00    0.247E+00
RMM:  10    -0.606314582099E+00    0.21275E-01   -0.58904E-01  9251   0.134E+00    0.155E+00
RMM:  11    -0.614026974632E+00   -0.77124E-02   -0.36555E-01  9270   0.111E+00    0.134E+00
RMM:  12    -0.791974305645E+00   -0.17795E+00   -0.42841E-01  8794   0.107E+00    0.401E+00
RMM:  13    -0.636522075700E+00    0.15545E+00   -0.19971E-01  8762   0.787E-01    0.703E-01
RMM:  14    -0.660325209181E+00   -0.23803E-01   -0.15306E-01  9052   0.621E-01    0.440E-01
RMM:  15    -0.672106450831E+00   -0.11781E-01   -0.11401E-01  8511   0.518E-01    0.468E-01
RMM:  16    -0.680106379950E+00   -0.79999E-02   -0.93843E-02  8356   0.476E-01    0.457E-01
RMM:  17    -0.687381656124E+00   -0.72753E-02   -0.78362E-02  8322   0.447E-01    0.743E-01
RMM:  18    -0.694005538298E+00   -0.66239E-02   -0.68561E-02  8264   0.444E-01    0.281E-01
RMM:  19    -0.701842649476E+00   -0.78371E-02   -0.66049E-02  8710   0.449E-01    0.804E-01
RMM:  20    -0.703081705418E+00   -0.12391E-02   -0.42074E-02  8069   0.345E-01    0.242E-01
RMM:  21    -0.708248201427E+00   -0.51665E-02   -0.43166E-02  7794   0.303E-01    0.130E-01
RMM:  22    -0.711685964940E+00   -0.34378E-02   -0.31301E-02  7736   0.262E-01    0.119E-01
RMM:  23    -0.714995531900E+00   -0.33096E-02   -0.29421E-02  7541   0.246E-01    0.886E-02
RMM:  24    -0.717424769267E+00   -0.24292E-02   -0.24209E-02  7102   0.221E-01    0.575E-02
RMM:  25    -0.719617097693E+00   -0.21923E-02   -0.21812E-02  6908   0.205E-01    0.391E-02
RMM:  26    -0.721472632416E+00   -0.18555E-02   -0.18690E-02  6520   0.190E-01    0.553E-02
RMM:  27    -0.723144631713E+00   -0.16720E-02   -0.16954E-02  6723   0.182E-01    0.108E-01
RMM:  28    -0.724611205849E+00   -0.14666E-02   -0.15027E-02  6464   0.170E-01    0.145E-01
RMM:  29    -0.725871959672E+00   -0.12608E-02   -0.13628E-02  6246   0.161E-01    0.176E-01
RMM:  30    -0.726998483551E+00   -0.11265E-02   -0.12192E-02  6148   0.152E-01    0.187E-01
RMM:  31    -0.727976940347E+00   -0.97846E-03   -0.11180E-02  6230   0.146E-01    0.229E-01
RMM:  32    -0.728869201153E+00   -0.89226E-03   -0.10124E-02  5815   0.139E-01    0.246E-01
RMM:  33    -0.729687348627E+00   -0.81815E-03   -0.93787E-03  5910   0.133E-01    0.272E-01
RMM:  34    -0.730402757963E+00   -0.71541E-03   -0.85893E-03  6030   0.130E-01    0.319E-01
RMM:  35    -0.731060303471E+00   -0.65755E-03   -0.80226E-03  5543   0.123E-01    0.344E-01
RMM:  36    -0.731652455750E+00   -0.59215E-03   -0.73874E-03  5339   0.118E-01    0.359E-01
RMM:  37    -0.732235638363E+00   -0.58318E-03   -0.69326E-03  5439   0.114E-01    0.371E-01
RMM:  38    -0.732807928111E+00   -0.57229E-03   -0.64571E-03  6025   0.112E-01    0.355E-01
RMM:  39    -0.733301439701E+00   -0.49351E-03   -0.60499E-03  5703   0.107E-01    0.349E-01
RMM:  40    -0.733729044045E+00   -0.42760E-03   -0.55458E-03  4999   0.102E-01    0.368E-01
RMM:  41    -0.734115472416E+00   -0.38643E-03   -0.52148E-03  5299   0.988E-02    0.375E-01
RMM:  42    -0.734476432404E+00   -0.36096E-03   -0.48649E-03  4891   0.960E-02    0.393E-01
RMM:  43    -0.734777869340E+00   -0.30144E-03   -0.45838E-03  5142   0.932E-02    0.400E-01
RMM:  44    -0.735069708488E+00   -0.29184E-03   -0.43029E-03  4920   0.907E-02    0.416E-01
RMM:  45    -0.735330364165E+00   -0.26066E-03   -0.40723E-03  4753   0.879E-02    0.429E-01
RMM:  46    -0.735580497738E+00   -0.25013E-03   -0.38498E-03  4641   0.856E-02    0.440E-01
RMM:  47    -0.735806208653E+00   -0.22571E-03   -0.36590E-03  4547   0.844E-02    0.463E-01
RMM:  48    -0.736004383452E+00   -0.19817E-03   -0.34792E-03  4414   0.820E-02    0.476E-01
RMM:  49    -0.736187703445E+00   -0.18332E-03   -0.33230E-03  4506   0.811E-02    0.490E-01
RMM:  50    -0.736359515442E+00   -0.17181E-03   -0.31640E-03  4472   0.793E-02    0.503E-01
RMM:  51    -0.736518348702E+00   -0.15883E-03   -0.30325E-03  4455   0.784E-02    0.516E-01
RMM:  52    -0.736675460241E+00   -0.15711E-03   -0.28998E-03  4505   0.768E-02    0.531E-01
RMM:  53    -0.736808355014E+00   -0.13289E-03   -0.27903E-03  4394   0.752E-02    0.543E-01
RMM:  54    -0.736929208160E+00   -0.12085E-03   -0.26752E-03  4342   0.743E-02    0.556E-01
RMM:  55    -0.737038437728E+00   -0.10923E-03   -0.25773E-03  4267   0.730E-02    0.569E-01
RMM:  56    -0.737138135741E+00   -0.99698E-04   -0.24792E-03  4195   0.718E-02    0.581E-01
RMM:  57    -0.737221875821E+00   -0.83740E-04   -0.23941E-03  4358   0.713E-02    0.594E-01
RMM:  58    -0.737300082852E+00   -0.78207E-04   -0.23101E-03  4255   0.703E-02    0.606E-01
RMM:  59    -0.737373344018E+00   -0.73261E-04   -0.22341E-03  4164   0.692E-02    0.617E-01
RMM:  60    -0.737440781559E+00   -0.67438E-04   -0.21630E-03  4084   0.684E-02    0.628E-01
RMM:  61    -0.737501126197E+00   -0.60345E-04   -0.20968E-03  4094   0.681E-02    0.639E-01
RMM:  62    -0.737533790973E+00   -0.32665E-04   -0.20337E-03  4268   0.669E-02    0.642E-01
RMM:  63    -0.737590668155E+00   -0.56877E-04   -0.19719E-03  4080   0.666E-02    0.651E-01
RMM:  64    -0.737639373718E+00   -0.48706E-04   -0.19162E-03  4054   0.659E-02    0.661E-01
RMM:  65    -0.737676118359E+00   -0.36745E-04   -0.18608E-03  4002   0.652E-02    0.670E-01
RMM:  66    -0.737706805572E+00   -0.30687E-04   -0.18110E-03  3933   0.643E-02    0.679E-01
RMM:  67    -0.737787920800E+00   -0.81115E-04   -0.18098E-03  5171   0.669E-02    0.656E-01
RMM:  68    -0.737803616030E+00   -0.15695E-04   -0.17447E-03  4148   0.632E-02    0.664E-01
RMM:  69    -0.737832169190E+00   -0.28553E-04   -0.16934E-03  3740   0.627E-02    0.672E-01
RMM:  70    -0.737881797799E+00   -0.49629E-04   -0.16491E-03  3762   0.625E-02    0.681E-01
RMM:  71    -0.737928414932E+00   -0.46617E-04   -0.16223E-03  4091   0.627E-02    0.684E-01
RMM:  72    -0.737951487532E+00   -0.23073E-04   -0.15997E-03  4362   0.623E-02    0.681E-01
RMM:  73    -0.737964209857E+00   -0.12722E-04   -0.15559E-03  3809   0.609E-02    0.689E-01
RMM:  74    -0.737971650447E+00   -0.74406E-05   -0.15251E-03  3811   0.605E-02    0.695E-01
RMM:  75    -0.737976447705E+00   -0.47973E-05   -0.14900E-03  3703   0.602E-02    0.702E-01
RMM:  76    -0.737990715559E+00   -0.14268E-04   -0.14646E-03  3804   0.603E-02    0.707E-01
RMM:  77    -0.737855748877E+00    0.13497E-03   -0.16291E-03  5974   0.727E-02    0.653E-01
RMM:  78    -0.737844768646E+00    0.10980E-04   -0.15411E-03  5321   0.631E-02    0.658E-01
RMM:  79    -0.737884749255E+00   -0.39981E-04   -0.14828E-03  4376   0.605E-02    0.667E-01
RMM:  80    -0.737936354028E+00   -0.51605E-04   -0.14265E-03  3993   0.606E-02    0.680E-01
RMM:  81    -0.737973038580E+00   -0.36685E-04   -0.13939E-03  4095   0.602E-02    0.691E-01
RMM:  82    -0.737931132106E+00    0.41906E-04   -0.13875E-03  4347   0.614E-02    0.681E-01
RMM:  83    -0.737936148056E+00   -0.50160E-05   -0.14110E-03  4574   0.611E-02    0.669E-01
RMM:  84    -0.737938905833E+00   -0.27578E-05   -0.14368E-03  4932   0.618E-02    0.657E-01
RMM:  85    -0.737948563747E+00   -0.96579E-05   -0.14132E-03  3677   0.581E-02    0.660E-01
RMM:  86    -0.737907578707E+00    0.40985E-04   -0.13951E-03  3590   0.577E-02    0.663E-01
RMM:  87    -0.737972823194E+00   -0.65244E-04   -0.14918E-03  5493   0.640E-02    0.624E-01
RMM:  88    -0.738000838468E+00   -0.28015E-04   -0.15003E-03  3868   0.573E-02    0.627E-01
RMM:  89    -0.738006360112E+00   -0.55216E-05   -0.14681E-03  3472   0.568E-02    0.627E-01
RMM:  90    -0.738003449162E+00    0.29110E-05   -0.14698E-03  3832   0.581E-02    0.627E-01
RMM:  91    -0.737956925765E+00    0.46523E-04   -0.15143E-03  5003   0.613E-02    0.618E-01
RMM:  92    -0.738105239576E+00   -0.14831E-03   -0.16208E-03  5396   0.611E-02    0.596E-01
RMM:  93    -0.738133371080E+00   -0.28132E-04   -0.15841E-03  4447   0.578E-02    0.595E-01
RMM:  94    -0.738148233599E+00   -0.14863E-04   -0.15824E-03  4190   0.581E-02    0.595E-01
RMM:  95    -0.738165608611E+00   -0.17375E-04   -0.16053E-03  4593   0.601E-02    0.592E-01
RMM:  96    -0.738165625229E+00   -0.16618E-07   -0.16240E-03  4418   0.588E-02    0.595E-01
RMM:  97    -0.738231988231E+00   -0.66363E-04   -0.15795E-03  4875   0.584E-02    0.590E-01
RMM:  98    -0.738263741037E+00   -0.31753E-04   -0.16666E-03  4154   0.574E-02    0.592E-01
RMM:  99    -0.738310041845E+00   -0.46301E-04   -0.17052E-03  3646   0.563E-02    0.595E-01
RMM: 100    -0.738337504674E+00   -0.27463E-04   -0.15705E-03  3613   0.561E-02
   8 F= -.38644083E+01 E0= -.38545137E+01  d E =0.450419E+02
       N       E                     dE             d eps       ncg     rms          rms(c)
DAV:   1    -0.135356280474E+02   -0.12797E+02   -0.20802E+03  5768   0.102E+02    0.302E+01
RMM:   2    -0.205650672710E+02   -0.70294E+01   -0.16202E+02  7336   0.922E+01    0.390E+01
RMM:   3     0.344846727777E+01    0.24014E+02   -0.65824E+01  8871   0.203E+01    0.231E+01
RMM:   4     0.139902430385E+02    0.10542E+02   -0.16526E+01  8522   0.114E+01    0.186E+01
RMM:   5     0.189186760021E+02    0.49284E+01   -0.12872E+01  7877   0.759E+00    0.139E+01
RMM:   6     0.239270379062E+02    0.50084E+01   -0.12211E+01  8799   0.633E+00    0.108E+01
RMM:   7     0.241728651349E+02    0.24583E+00   -0.19273E+01  8502   0.764E+00    0.157E+01
RMM:   8     0.240156022511E+02   -0.15726E+00   -0.89006E+00  9681   0.470E+00    0.161E+01
RMM:   9     0.236287624831E+02   -0.38684E+00   -0.46409E+00  9703   0.362E+00    0.172E+01
RMM:  10     0.222016257871E+02   -0.14271E+01   -0.99155E+00  8984   0.509E+00    0.247E+01
RMM:  11     0.187339996505E+02   -0.34676E+01   -0.14007E+01  9629   0.583E+00    0.382E+01
RMM:  12     0.233915282312E+02    0.46575E+01   -0.74227E+00  7898   0.612E+00    0.203E+01
RMM:  13     0.232506111977E+02   -0.14092E+00   -0.10472E+01  8388   0.505E+00    0.608E+00
RMM:  14     0.231979309249E+02   -0.52680E-01   -0.14296E+00  9550   0.224E+00    0.601E+00
RMM:  15     0.230919544752E+02   -0.10598E+00   -0.10444E+00  9326   0.138E+00    0.602E+00
RMM:  16     0.230525711693E+02   -0.39383E-01   -0.38032E-01  8782   0.102E+00    0.609E+00
RMM:  17     0.230176259778E+02   -0.34945E-01   -0.35670E-01  8542   0.796E-01    0.615E+00
RMM:  18     0.229574765446E+02   -0.60149E-01   -0.24516E-01  8445   0.695E-01    0.625E+00
RMM:  19     0.220567563026E+02   -0.90072E+00   -0.15611E+00  8576   0.203E+00    0.117E+01
RMM:  20     0.224081538579E+02    0.35140E+00   -0.39382E-01  8683   0.132E+00    0.116E+01
RMM:  21     0.226260885201E+02    0.21793E+00   -0.27828E-01  9093   0.959E-01    0.109E+01
RMM:  22     0.226628607767E+02    0.36772E-01   -0.11883E-01  8697   0.602E-01    0.107E+01
RMM:  23     0.227921319535E+02    0.12927E+00   -0.19166E-01  8260   0.687E-01    0.963E+00
RMM:  24     0.231572767376E+02    0.36514E+00   -0.32366E-01  9020   0.994E-01    0.704E+00
RMM:  25     0.233363779300E+02    0.17910E+00   -0.46901E-01  9174   0.107E+00    0.477E+00
RMM:  26     0.233317550074E+02   -0.46229E-02   -0.21577E-01  8577   0.775E-01    0.422E+00
RMM:  27     0.233179908476E+02   -0.13764E-01   -0.15924E-01  8309   0.642E-01    0.384E+00
RMM:  28     0.232877926667E+02   -0.30198E-01   -0.76394E-02  7366   0.529E-01    0.394E+00
RMM:  29     0.232776555896E+02   -0.10137E-01   -0.84040E-02  6726   0.459E-01    0.380E+00
RMM:  30     0.232724894242E+02   -0.51662E-02   -0.65948E-02  7787   0.441E-01    0.359E+00
RMM:  31     0.233324952472E+02    0.60006E-01   -0.24570E-01  9152   0.869E-01    0.301E+00
RMM:  32     0.232951933812E+02   -0.37302E-01   -0.78474E-02  8812   0.618E-01    0.270E+00
RMM:  33     0.230311880913E+02   -0.26401E+00   -0.52287E-01  9682   0.129E+00    0.728E+00
RMM:  34     0.229377312945E+02   -0.93457E-01   -0.19771E-01  9072   0.652E-01    0.928E+00
RMM:  35     0.229655631865E+02    0.27832E-01   -0.47432E-02  7573   0.379E-01    0.917E+00
RMM:  36     0.229654070206E+02   -0.15617E-03   -0.34780E-02  6440   0.279E-01    0.942E+00
RMM:  37     0.229743662193E+02    0.89592E-02   -0.21040E-02  6908   0.219E-01    0.943E+00
RMM:  38     0.229840866598E+02    0.97204E-02   -0.15428E-02  6681   0.183E-01    0.941E+00
RMM:  39     0.229777221016E+02   -0.63646E-02   -0.14696E-02  6313   0.157E-01    0.953E+00
RMM:  40     0.230894747364E+02    0.11175E+00   -0.38121E-02  8576   0.352E-01    0.838E+00
RMM:  41     0.231026301150E+02    0.13155E-01   -0.20222E-02  6740   0.220E-01    0.820E+00
RMM:  42     0.230981665286E+02   -0.44636E-02   -0.12679E-02  6646   0.170E-01    0.824E+00
RMM:  43     0.231201755539E+02    0.22009E-01   -0.18561E-02  7338   0.204E-01    0.774E+00
RMM:  44     0.231069846466E+02   -0.13191E-01   -0.85987E-03  6786   0.160E-01    0.793E+00
RMM:  45     0.231143462157E+02    0.73616E-02   -0.10580E-02  6656   0.150E-01    0.768E+00
RMM:  46     0.231121120306E+02   -0.22342E-02   -0.81920E-03  6195   0.135E-01    0.768E+00
RMM:  47     0.229948879216E+02   -0.11722E+00   -0.47373E-02  8554   0.393E-01    0.932E+00
RMM:  48     0.230273620576E+02    0.32474E-01   -0.56654E-03  6575   0.167E-01    0.902E+00
RMM:  49     0.230391616567E+02    0.11800E-01   -0.65563E-03  6496   0.108E-01    0.889E+00
RMM:  50     0.230658479752E+02    0.26686E-01   -0.64953E-03  6890   0.130E-01    0.846E+00
RMM:  51     0.230875740457E+02    0.21726E-01   -0.90585E-03  6791   0.142E-01    0.804E+00
RMM:  52     0.231607762154E+02    0.73202E-01   -0.47337E-02  8773   0.368E-01    0.666E+00
RMM:  53     0.231671012735E+02    0.63251E-02   -0.24477E-02  6961   0.245E-01    0.633E+00
RMM:  54     0.231571465352E+02   -0.99547E-02   -0.10168E-02  6592   0.184E-01    0.636E+00
RMM:  55     0.231561329788E+02   -0.10136E-02   -0.94962E-03  6640   0.164E-01    0.627E+00
RMM:  56     0.231545041349E+02   -0.16288E-02   -0.73621E-03  6450   0.144E-01    0.622E+00
RMM:  57     0.225948908336E+02   -0.55961E+00   -0.94757E-01  9782   0.170E+00    0.158E+01
RMM:  58     0.228749693217E+02    0.28008E+00   -0.96911E-02  9518   0.864E-01    0.134E+01
RMM:  59     0.228380815050E+02   -0.36888E-01   -0.32700E-02  8878   0.412E-01    0.141E+01
RMM:  60     0.228308529174E+02   -0.72286E-02   -0.36110E-02  7161   0.291E-01    0.144E+01
RMM:  61     0.228504012338E+02    0.19548E-01   -0.19596E-02  6823   0.212E-01    0.143E+01
RMM:  62     0.232893483819E+02    0.43895E+00   -0.17772E+00  9918   0.239E+00    0.688E+00
RMM:  63     0.230147038509E+02   -0.27464E+00   -0.60995E-01  9799   0.170E+00    0.141E+01
RMM:  64     0.230650319669E+02    0.50328E-01   -0.65056E-02  9124   0.459E-01    0.124E+01
RMM:  65     0.230463161432E+02   -0.18716E-01   -0.45166E-02  9015   0.462E-01    0.117E+01
RMM:  66     0.230320476658E+02   -0.14268E-01   -0.35339E-02  7081   0.308E-01    0.118E+01
RMM:  67     0.228787016912E+02   -0.15335E+00   -0.84706E-02  9502   0.662E-01    0.148E+01
RMM:  68     0.230073624823E+02    0.12866E+00   -0.16774E-02  9003   0.458E-01    0.127E+01
RMM:  69     0.230765013666E+02    0.69139E-01    0.82007E-02  8767   0.506E-01    0.107E+01
RMM:  70     0.231561046318E+02    0.79603E-01    0.11421E-01  9499   0.712E-01    0.784E+00
RMM:  71     0.231226743407E+02   -0.33430E-01   -0.79741E-02  7945   0.420E-01    0.797E+00
RMM:  72     0.229946962713E+02   -0.12798E+00    0.22108E-02  8983   0.577E-01    0.102E+01
RMM:  73     0.229984691063E+02    0.37728E-02   -0.52988E-02  6405   0.363E-01    0.101E+01
RMM:  74     0.231254533262E+02    0.12698E+00    0.17328E-02  9544   0.563E-01    0.775E+00
RMM:  75     0.231894830205E+02    0.64030E-01   -0.74843E-02  9393   0.601E-01    0.570E+00
RMM:  76     0.232151156058E+02    0.25633E-01   -0.71684E-02  9024   0.550E-01    0.451E+00
RMM:  77     0.232397862714E+02    0.24671E-01   -0.19061E-01  9571   0.922E-01    0.236E+00
RMM:  78     0.232320965135E+02   -0.76898E-02   -0.15239E-01  8608   0.693E-01    0.227E+00
RMM:  79     0.232258137022E+02   -0.62828E-02   -0.75503E-02  8065   0.506E-01    0.214E+00
RMM:  80     0.232252255911E+02   -0.58811E-03   -0.45891E-02  7039   0.398E-01    0.203E+00
RMM:  81     0.232212733234E+02   -0.39523E-02   -0.26730E-02  7593   0.336E-01    0.196E+00
RMM:  82     0.232214256770E+02    0.15235E-03   -0.34855E-02  8369   0.354E-01    0.205E+00
RMM:  83     0.232189509675E+02   -0.24747E-02   -0.23633E-02  6380   0.288E-01    0.196E+00
RMM:  84     0.232182518381E+02   -0.69913E-03   -0.17186E-02  6717   0.258E-01    0.199E+00
RMM:  85     0.232169072882E+02   -0.13445E-02   -0.17108E-02  7367   0.240E-01    0.192E+00
RMM:  86     0.232137418879E+02   -0.31654E-02   -0.15621E-02  8177   0.235E-01    0.175E+00
RMM:  87     0.231948237967E+02   -0.18918E-01   -0.34607E-02  9397   0.410E-01    0.226E+00
RMM:  88     0.231864271561E+02   -0.83966E-02   -0.21593E-02  8022   0.244E-01    0.267E+00
RMM:  89     0.231889979265E+02    0.25708E-02   -0.79465E-03  6996   0.165E-01    0.271E+00
RMM:  90     0.231918076220E+02    0.28097E-02   -0.42192E-03  6574   0.125E-01    0.272E+00
RMM:  91     0.231902480610E+02   -0.15596E-02   -0.38695E-03  6481   0.109E-01    0.282E+00
RMM:  92     0.232209704733E+02    0.30722E-01   -0.19612E-01  9508   0.845E-01    0.220E+00
RMM:  93     0.232152881771E+02   -0.56823E-02   -0.41750E-02  8022   0.493E-01    0.278E+00
RMM:  94     0.232088702899E+02   -0.64179E-02   -0.57938E-02  7896   0.446E-01    0.313E+00
RMM:  95     0.232152581149E+02    0.63878E-02   -0.20996E-02  8311   0.346E-01    0.264E+00
RMM:  96     0.232176645040E+02    0.24064E-02   -0.49508E-02  9230   0.436E-01    0.146E+00
RMM:  97     0.231930219388E+02   -0.24643E-01   -0.71581E-02  9383   0.578E-01    0.225E+00
RMM:  98     0.231948472085E+02    0.18253E-02   -0.13824E-02  7014   0.283E-01    0.236E+00
RMM:  99     0.231941853427E+02   -0.66187E-03   -0.53132E-03  6481   0.206E-01    0.252E+00
RMM: 100     0.231955784573E+02    0.13931E-02   -0.17612E-03  6948   0.165E-01
   9 F= 0.20088284E+02 E0= 0.20091723E+02  d E =0.689946E+02
       N       E                     dE             d eps       ncg     rms          rms(c)
DAV:   1    -0.890835694465E+02   -0.11228E+03   -0.11018E+03  6864   0.545E+00    0.284E+01
RMM:   2    -0.798196777805E+02    0.92639E+01   -0.24343E+02  6836   0.271E+01    0.279E+01
RMM:   3    -0.776409074092E+02    0.21788E+01   -0.65102E+01  6887   0.149E+01    0.225E+01
RMM:   4    -0.775135343922E+02    0.12737E+00   -0.17703E+01  7353   0.940E+00    0.187E+01
RMM:   5    -0.798436908183E+02   -0.23302E+01   -0.13933E+01  7614   0.655E+00    0.133E+01
RMM:   6    -0.776001010378E+02    0.22436E+01   -0.42821E+00  8062   0.434E+00    0.414E+00
RMM:   7    -0.776305663058E+02   -0.30465E-01   -0.21782E+00  8143   0.318E+00    0.262E+00
RMM:   8    -0.777490438390E+02   -0.11848E+00   -0.12075E+00  8542   0.241E+00    0.287E+00
RMM:   9    -0.777292761653E+02    0.19768E-01   -0.79909E-01  8744   0.196E+00    0.108E+00
RMM:  10    -0.777674922359E+02   -0.38216E-01   -0.42797E-01  9066   0.163E+00    0.680E-01
RMM:  11    -0.778094431906E+02   -0.41951E-01   -0.45844E-01  9241   0.145E+00    0.123E-01
RMM:  12    -0.778348727780E+02   -0.25430E-01   -0.24517E-01  9537   0.128E+00    0.240E-01
RMM:  13    -0.778627127543E+02   -0.27840E-01   -0.29237E-01  8912   0.117E+00    0.861E-02
RMM:  14    -0.778821282415E+02   -0.19415E-01   -0.19840E-01  8652   0.108E+00    0.104E-01
RMM:  15    -0.779059836161E+02   -0.23855E-01   -0.24053E-01  8459   0.103E+00    0.239E-01
RMM:  16    -0.779206306283E+02   -0.14647E-01   -0.16495E-01  8218   0.986E-01    0.124E-01
RMM:  17    -0.779398135661E+02   -0.19183E-01   -0.20307E-01  8344   0.921E-01    0.109E-01
RMM:  18    -0.779559114777E+02   -0.16098E-01   -0.16740E-01  8158   0.865E-01    0.158E-01
RMM:  19    -0.779712929487E+02   -0.15381E-01   -0.16690E-01  7989   0.831E-01    0.136E-01
RMM:  20    -0.779832164214E+02   -0.11923E-01   -0.12997E-01  7933   0.788E-01    0.139E-01
RMM:  21    -0.779940187682E+02   -0.10802E-01   -0.11778E-01  7530   0.754E-01    0.154E-01
RMM:  22    -0.780027640684E+02   -0.87453E-02   -0.95137E-02  6957   0.723E-01    0.180E-01
RMM:  23    -0.780107291252E+02   -0.79651E-02   -0.91189E-02  6955   0.702E-01    0.180E-01
RMM:  24    -0.780174149967E+02   -0.66859E-02   -0.77783E-02  6896   0.677E-01    0.179E-01
RMM:  25    -0.780241654762E+02   -0.67505E-02   -0.74440E-02  6255   0.652E-01    0.202E-01
RMM:  26    -0.780298903026E+02   -0.57248E-02   -0.64579E-02  5945   0.631E-01    0.220E-01
RMM:  27    -0.780352224537E+02   -0.53322E-02   -0.60189E-02  5453   0.613E-01    0.240E-01
RMM:  28    -0.780396861351E+02   -0.44637E-02   -0.51395E-02  5222   0.595E-01    0.259E-01
RMM:  29    -0.780437216512E+02   -0.40355E-02   -0.47095E-02  4768   0.580E-01    0.278E-01
RMM:  30    -0.780472631669E+02   -0.35415E-02   -0.41500E-02  4626   0.565E-01    0.298E-01
RMM:  31    -0.780506634756E+02   -0.34003E-02   -0.40324E-02  4212   0.551E-01    0.316E-01
RMM:  32    -0.780539239626E+02   -0.32605E-02   -0.37662E-02  4667   0.540E-01    0.337E-01
RMM:  33    -0.780569328566E+02   -0.30089E-02   -0.35802E-02  3920   0.527E-01    0.354E-01
RMM:  34    -0.780596486200E+02   -0.27158E-02   -0.32884E-02  3834   0.516E-01    0.370E-01
RMM:  35    -0.780622919017E+02   -0.26433E-02   -0.32234E-02  3580   0.506E-01    0.385E-01
RMM:  36    -0.780648127530E+02   -0.25209E-02   -0.31469E-02  3717   0.496E-01    0.397E-01
RMM:  37    -0.780674010412E+02   -0.25883E-02   -0.32088E-02  3895   0.486E-01    0.408E-01
RMM:  38    -0.780699338786E+02   -0.25328E-02   -0.30380E-02  3506   0.477E-01    0.422E-01
RMM:  39    -0.780713785055E+02   -0.14446E-02   -0.22153E-02  4804   0.470E-01    0.426E-01
RMM:  40    -0.780726016156E+02   -0.12231E-02   -0.17561E-02  3538   0.461E-01    0.437E-01
RMM:  41    -0.780737139753E+02   -0.11124E-02   -0.16846E-02  3441   0.453E-01    0.447E-01
RMM:  42    -0.780747370605E+02   -0.10231E-02   -0.15632E-02  3269   0.446E-01    0.456E-01
RMM:  43    -0.780757188858E+02   -0.98183E-03   -0.14963E-02  3142   0.438E-01    0.466E-01
RMM:  44    -0.780765787015E+02   -0.85982E-03   -0.14328E-02  3492   0.432E-01    0.473E-01
RMM:  45    -0.780775450862E+02   -0.96638E-03   -0.14164E-02  3259   0.425E-01    0.483E-01
RMM:  46    -0.780784681212E+02   -0.92304E-03   -0.13978E-02  3096   0.419E-01    0.492E-01
RMM:  47    -0.780792683339E+02   -0.80021E-03   -0.13725E-02  3828   0.413E-01    0.498E-01
RMM:  48    -0.780802059342E+02   -0.93760E-03   -0.14116E-02  3142   0.407E-01    0.505E-01
RMM:  49    -0.780811592164E+02   -0.95328E-03   -0.14171E-02  3090   0.402E-01    0.513E-01
RMM:  50    -0.780822430190E+02   -0.10838E-02   -0.15441E-02  3013   0.396E-01    0.520E-01
RMM:  51    -0.780834048147E+02   -0.11618E-02   -0.16328E-02  3008   0.391E-01    0.526E-01
RMM:  52    -0.780838490759E+02   -0.44426E-03   -0.15029E-02  5119   0.391E-01    0.516E-01
RMM:  53    -0.780850407475E+02   -0.11917E-02   -0.16192E-02  4434   0.382E-01    0.523E-01
RMM:  54    -0.780864511110E+02   -0.14104E-02   -0.16601E-02  3750   0.377E-01    0.535E-01
RMM:  55    -0.780877370404E+02   -0.12859E-02   -0.17170E-02  3134   0.371E-01    0.541E-01
RMM:  56    -0.780890557915E+02   -0.13188E-02   -0.17830E-02  3108   0.367E-01    0.546E-01
RMM:  57    -0.780903965799E+02   -0.13408E-02   -0.18806E-02  4507   0.365E-01    0.551E-01
RMM:  58    -0.780922173991E+02   -0.18208E-02   -0.19507E-02  4613   0.362E-01    0.563E-01
RMM:  59    -0.780933095204E+02   -0.10921E-02   -0.19288E-02  4782   0.359E-01    0.560E-01
RMM:  60    -0.780934669614E+02   -0.15744E-03   -0.20410E-02  5669   0.370E-01    0.534E-01
RMM:  61    -0.780940972154E+02   -0.63025E-03   -0.20682E-02  5526   0.361E-01    0.514E-01
RMM:  62    -0.780937709254E+02    0.32629E-03   -0.29349E-02  6843   0.390E-01    0.449E-01
RMM:  63    -0.780947612953E+02   -0.99037E-03   -0.13843E-02  5477   0.353E-01    0.450E-01
RMM:  64    -0.780962828688E+02   -0.15216E-02   -0.19017E-02  5207   0.342E-01    0.454E-01
RMM:  65    -0.780973554041E+02   -0.10725E-02   -0.16144E-02  5087   0.335E-01    0.452E-01
RMM:  66    -0.780986260920E+02   -0.12707E-02   -0.15599E-02  4620   0.330E-01    0.458E-01
RMM:  67    -0.781006582974E+02   -0.20322E-02   -0.13912E-02  5643   0.343E-01    0.496E-01
RMM:  68    -0.781015559853E+02   -0.89769E-03   -0.12161E-02  5171   0.326E-01    0.499E-01
RMM:  69    -0.781023042722E+02   -0.74829E-03   -0.11429E-02  4474   0.320E-01    0.502E-01
RMM:  70    -0.781028802393E+02   -0.57597E-03   -0.99471E-03  3459   0.315E-01    0.504E-01
RMM:  71    -0.781034717229E+02   -0.59148E-03   -0.10697E-02  3510   0.312E-01    0.503E-01
RMM:  72    -0.781029049283E+02    0.56679E-03   -0.10754E-02  5662   0.330E-01    0.466E-01
RMM:  73    -0.781033859263E+02   -0.48100E-03   -0.97410E-03  5252   0.313E-01    0.461E-01
RMM:  74    -0.781035826590E+02   -0.19673E-03   -0.79813E-03  5190   0.310E-01    0.450E-01
RMM:  75    -0.781039076520E+02   -0.32499E-03   -0.10012E-02  5232   0.306E-01    0.434E-01
RMM:  76    -0.781041296353E+02   -0.22198E-03   -0.65763E-03  4807   0.300E-01    0.428E-01
RMM:  77    -0.781044062935E+02   -0.27666E-03   -0.11535E-02  5499   0.309E-01    0.394E-01
RMM:  78    -0.781047196988E+02   -0.31341E-03   -0.43488E-03  5181   0.300E-01    0.416E-01
RMM:  79    -0.781053534427E+02   -0.63374E-03   -0.92573E-03  4900   0.294E-01    0.431E-01
RMM:  80    -0.781054794875E+02   -0.12604E-03   -0.50632E-03  4537   0.289E-01    0.438E-01
RMM:  81    -0.781056979179E+02   -0.21843E-03   -0.82682E-03  5213   0.290E-01    0.436E-01
RMM:  82    -0.781055449682E+02    0.15295E-03   -0.69519E-03  5460   0.294E-01    0.427E-01
RMM:  83    -0.781055864314E+02   -0.41463E-04   -0.81792E-03  5518   0.292E-01    0.390E-01
RMM:  84    -0.781056743229E+02   -0.87891E-04   -0.60597E-03  5266   0.286E-01    0.379E-01
RMM:  85    -0.781059131707E+02   -0.23885E-03   -0.73764E-03  5221   0.283E-01    0.371E-01
RMM:  86    -0.781060714266E+02   -0.15826E-03   -0.71073E-03  5339   0.283E-01    0.357E-01
RMM:  87    -0.781067586947E+02   -0.68727E-03   -0.14445E-02  6232   0.297E-01    0.307E-01
RMM:  88    -0.781066807494E+02    0.77945E-04   -0.28879E-03  5283   0.280E-01    0.306E-01
RMM:  89    -0.781070682137E+02   -0.38746E-03   -0.74566E-03  5109   0.274E-01    0.307E-01
RMM:  90    -0.781071708930E+02   -0.10268E-03   -0.45617E-03  4858   0.269E-01    0.309E-01
RMM:  91    -0.781074818152E+02   -0.31092E-03   -0.66143E-03  4385   0.266E-01    0.310E-01
RMM:  92    -0.781076800196E+02   -0.19820E-03   -0.65932E-03  5461   0.273E-01    0.264E-01
RMM:  93    -0.781079865401E+02   -0.30652E-03   -0.63264E-03  5320   0.270E-01    0.261E-01
RMM:  94    -0.781081386759E+02   -0.15214E-03   -0.49271E-03  4854   0.262E-01    0.257E-01
RMM:  95    -0.781084969973E+02   -0.35832E-03   -0.69702E-03  4635   0.258E-01    0.256E-01
RMM:  96    -0.781086296152E+02   -0.13262E-03   -0.47634E-03  4614   0.257E-01    0.252E-01
RMM:  97    -0.781090885510E+02   -0.45894E-03   -0.80925E-03  5392   0.264E-01    0.229E-01
RMM:  98    -0.781092185270E+02   -0.12998E-03   -0.47902E-03  4722   0.255E-01    0.228E-01
RMM:  99    -0.781095852401E+02   -0.36671E-03   -0.72033E-03  4534   0.252E-01    0.233E-01
RMM: 100    -0.781098262130E+02   -0.24097E-03   -0.58846E-03  4180   0.249E-01
  10 F= -.81217976E+02 E0= -.81216115E+02  d E =-.323116E+02
       N       E                     dE             d eps       ncg     rms          rms(c)
DAV:   1    -0.847083300153E+02   -0.65987E+01   -0.59876E+01  6320   0.181E+00    0.986E-01
RMM:   2    -0.854307819350E+02   -0.72245E+00   -0.70384E+00  6329   0.313E+00    0.857E-01
RMM:   3    -0.855897925263E+02   -0.15901E+00   -0.18040E+00  7003   0.109E+00    0.684E-01
RMM:   4    -0.855342110006E+02    0.55582E-01    0.10992E+00  7148   0.563E-01    0.577E-01
RMM:   5    -0.855785483968E+02   -0.44337E-01   -0.14694E-01  7267   0.330E-01    0.301E-01
RMM:   6    -0.855965406992E+02   -0.17992E-01   -0.14632E-01  7547   0.228E-01    0.205E-01
RMM:   7    -0.856053854143E+02   -0.88447E-02   -0.88132E-02  6748   0.191E-01    0.704E-02
RMM:   8    -0.856116104531E+02   -0.62250E-02   -0.62430E-02  6343   0.145E-01    0.506E-02
RMM:   9    -0.856160777384E+02   -0.44673E-02   -0.44122E-02  5385   0.113E-01    0.343E-02
RMM:  10    -0.856192364262E+02   -0.31587E-02   -0.31152E-02  5223   0.928E-02    0.330E-02
RMM:  11    -0.856215801259E+02   -0.23437E-02   -0.23168E-02  5157   0.805E-02    0.311E-02
RMM:  12    -0.856233072318E+02   -0.17271E-02   -0.16793E-02  5394   0.777E-02    0.294E-02
RMM:  13    -0.856246897136E+02   -0.13825E-02   -0.13985E-02  5130   0.682E-02    0.100E-02
RMM:  14    -0.856256823818E+02   -0.99267E-03   -0.97938E-03  4761   0.559E-02    0.108E-02
RMM:  15    -0.856265649352E+02   -0.88255E-03   -0.87410E-03  3943   0.504E-02    0.125E-02
RMM:  16    -0.856271791769E+02   -0.61424E-03   -0.60967E-03  3817   0.467E-02    0.131E-02
RMM:  17    -0.856277893922E+02   -0.61022E-03   -0.60776E-03  4577   0.462E-02    0.225E-02
RMM:  18    -0.856282199729E+02   -0.43058E-03   -0.42421E-03  4824   0.438E-02    0.317E-02
RMM:  19    -0.856285956204E+02   -0.37565E-03   -0.38604E-03  3725   0.397E-02    0.335E-02
RMM:  20    -0.856288755709E+02   -0.27995E-03   -0.28411E-03  3627   0.379E-02    0.390E-02
RMM:  21    -0.856291273913E+02   -0.25182E-03   -0.26654E-03  3488   0.362E-02    0.377E-02
RMM:  22    -0.856292880976E+02   -0.16071E-03   -0.18124E-03  4162   0.358E-02    0.331E-02
RMM:  23    -0.856294708125E+02   -0.18271E-03   -0.19552E-03  3603   0.336E-02    0.311E-02
RMM:  24    -0.856296050486E+02   -0.13424E-03   -0.14005E-03  2871   0.320E-02    0.320E-02
RMM:  25    -0.856297502032E+02   -0.14515E-03   -0.15027E-03  2796   0.312E-02    0.332E-02
RMM:  26    -0.856298604305E+02   -0.11023E-03   -0.11448E-03  2759   0.302E-02    0.344E-02
RMM:  27    -0.856299674342E+02   -0.10700E-03   -0.11903E-03  3800   0.304E-02    0.303E-02
RMM:  28    -0.856300593343E+02   -0.91900E-04   -0.10345E-03  4216   0.299E-02    0.255E-02
RMM:  29    -0.856301605057E+02   -0.10117E-03   -0.10381E-03  2930   0.282E-02    0.259E-02
RMM:  30    -0.856302564352E+02   -0.95929E-04   -0.98013E-04  2552   0.275E-02    0.267E-02
RMM:  31    -0.856303587294E+02   -0.10229E-03   -0.10501E-03  2536   0.271E-02    0.270E-02
RMM:  32    -0.856304503088E+02   -0.91579E-04   -0.94334E-04  2480   0.266E-02    0.273E-02
RMM:  33    -0.856305445653E+02   -0.94256E-04   -0.97659E-04  2658   0.265E-02    0.273E-02
RMM:  34    -0.856306337996E+02   -0.89234E-04   -0.93066E-04  2450   0.261E-02    0.281E-02
RMM:  35    -0.856307208837E+02   -0.87084E-04   -0.90042E-04  2430   0.254E-02    0.286E-02
RMM:  36    -0.856308025093E+02   -0.81626E-04   -0.84386E-04  2440   0.251E-02    0.290E-02
RMM:  37    -0.856308856633E+02   -0.83154E-04   -0.85944E-04  2394   0.247E-02    0.295E-02
RMM:  38    -0.856309664047E+02   -0.80741E-04   -0.83687E-04  2381   0.245E-02    0.299E-02
RMM:  39    -0.856310465677E+02   -0.80163E-04   -0.83219E-04  2373   0.243E-02    0.303E-02
RMM:  40    -0.856311222407E+02   -0.75673E-04   -0.78846E-04  2357   0.240E-02    0.308E-02
RMM:  41    -0.856311993321E+02   -0.77091E-04   -0.80091E-04  2277   0.238E-02    0.314E-02
[...]
  59 F= -.97805185E+02 E0= -.97802033E+02  d E =-.611600E-02
       N       E                     dE             d eps       ncg     rms          rms(c)
DAV:   1    -0.947100937610E+02    0.94474E-03   -0.20548E-01  5456   0.125E+00    0.143E-01
RMM:   2    -0.947109727385E+02   -0.87898E-03   -0.98443E-03  6149   0.287E-01    0.741E-02
RMM:   3    -0.947112488343E+02   -0.27610E-03   -0.19027E-03  7997   0.147E-01    0.741E-02
RMM:   4    -0.947111644008E+02    0.84433E-04   -0.33856E-04  7439   0.564E-02    0.438E-02
RMM:   5    -0.947111575735E+02    0.68273E-05   -0.70239E-05  5905   0.262E-02
  60 F= -.97805446E+02 E0= -.97802249E+02  d E =-.637765E-02
       N       E                     dE             d eps       ncg     rms          rms(c)
DAV:   1    -0.947120407220E+02   -0.87632E-03   -0.58660E-02  5808   0.671E-01    0.726E-02
RMM:   2    -0.947122601877E+02   -0.21947E-03   -0.24900E-03  5905   0.151E-01    0.406E-02
RMM:   3    -0.947123273875E+02   -0.67200E-04   -0.50471E-04  7188   0.782E-02    0.397E-02
RMM:   4    -0.947123003153E+02    0.27072E-04   -0.94855E-05  6147   0.311E-02    0.227E-02
RMM:   5    -0.947122981086E+02    0.22068E-05   -0.22227E-05  4250   0.149E-02
  61 F= -.97806474E+02 E0= -.97803324E+02  d E =-.102822E-02
       N       E                     dE             d eps       ncg     rms          rms(c)
DAV:   1    -0.947120719404E+02    0.22837E-03   -0.42000E-01  5448   0.179E+00    0.187E-01
RMM:   2    -0.947136648825E+02   -0.15929E-02   -0.17850E-02  6105   0.410E-01    0.104E-01
RMM:   3    -0.947142229016E+02   -0.55802E-03   -0.37095E-03  7973   0.212E-01    0.112E-01
RMM:   4    -0.947139602395E+02    0.26266E-03   -0.69484E-04  7884   0.817E-02    0.622E-02
RMM:   5    -0.947139570845E+02    0.31550E-05   -0.15047E-04  6683   0.343E-02    0.435E-02
RMM:   6    -0.947139497767E+02    0.73078E-05   -0.73515E-05  5329   0.204E-02
  62 F= -.97807827E+02 E0= -.97804796E+02  d E =-.238122E-02
       N       E                     dE             d eps       ncg     rms          rms(c)
DAV:   1    -0.947139573944E+02   -0.30991E-06   -0.16723E-02  6208   0.360E-01    0.373E-02
RMM:   2    -0.947140207667E+02   -0.63372E-04   -0.75447E-04  6040   0.838E-02    0.202E-02
RMM:   3    -0.947140372475E+02   -0.16481E-04   -0.16033E-04  6836   0.436E-02    0.155E-02
RMM:   4    -0.947140404594E+02   -0.32119E-05   -0.48064E-05  4787   0.199E-02
  63 F= -.97807859E+02 E0= -.97804841E+02  d E =-.241255E-02
       N       E                     dE             d eps       ncg     rms          rms(c)
DAV:   1    -0.947140129615E+02    0.24286E-04   -0.14299E-03  5984   0.114E-01    0.172E-02
RMM:   2    -0.947140200147E+02   -0.70532E-05   -0.78862E-05  4948   0.276E-02
  64 F= -.97807856E+02 E0= -.97804838E+02  d E =-.240953E-02
       N       E                     dE             d eps       ncg     rms          rms(c)
DAV:   1    -0.947140324128E+02   -0.19451E-04   -0.54503E-04  6192   0.689E-02    0.773E-03
RMM:   2    -0.947140366011E+02   -0.41883E-05   -0.28118E-05  3982   0.175E-02
  65 F= -.97807861E+02 E0= -.97804844E+02  d E =-.241508E-02
       N       E                     dE             d eps       ncg     rms          rms(c)
DAV:   1    -0.947145104865E+02   -0.47807E-03   -0.28910E-02  5616   0.439E-01    0.361E-02
RMM:   2    -0.947145796726E+02   -0.69186E-04   -0.68765E-04  5773   0.982E-02    0.183E-02
RMM:   3    -0.947146166137E+02   -0.36941E-04   -0.26719E-04  7187   0.564E-02    0.236E-02
RMM:   4    -0.947146039262E+02    0.12688E-04   -0.37175E-05  4264   0.198E-02    0.126E-02
RMM:   5    -0.947146047630E+02   -0.83686E-06   -0.91208E-06  3170   0.117E-02
  66 F= -.97808321E+02 E0= -.97805304E+02  d E =-.460130E-03
       N       E                     dE             d eps       ncg     rms          rms(c)
DAV:   1    -0.947152543010E+02   -0.65037E-03   -0.25889E-01  5536   0.131E+00    0.109E-01
RMM:   2    -0.947158094926E+02   -0.55519E-03   -0.60111E-03  5942   0.294E-01    0.475E-02
RMM:   3    -0.947160531815E+02   -0.24369E-03   -0.23385E-03  7698   0.165E-01    0.384E-02
RMM:   4    -0.947160722328E+02   -0.19051E-04   -0.27513E-04  6912   0.526E-02    0.412E-02
RMM:   5    -0.947160648646E+02    0.73682E-05   -0.54807E-05  5562   0.245E-02
  67 F= -.97809458E+02 E0= -.97806433E+02  d E =-.159722E-02
       N       E                     dE             d eps       ncg     rms          rms(c)
DAV:   1    -0.947146146241E+02    0.14576E-02   -0.10358E+00  5488   0.262E+00    0.208E-01
RMM:   2    -0.947168586775E+02   -0.22441E-02   -0.24153E-02  6042   0.590E-01    0.927E-02
RMM:   3    -0.947178209105E+02   -0.96223E-03   -0.94742E-03  7934   0.333E-01    0.775E-02
RMM:   4    -0.947179155282E+02   -0.94618E-04   -0.11311E-03  7536   0.106E-01    0.858E-02
RMM:   5    -0.947178914725E+02    0.24056E-04   -0.20698E-04  7310   0.433E-02    0.763E-02
RMM:   6    -0.947178952485E+02   -0.37760E-05   -0.78151E-05  5297   0.215E-02
  68 F= -.97810648E+02 E0= -.97807609E+02  d E =-.278668E-02
       N       E                     dE             d eps       ncg     rms          rms(c)
DAV:   1    -0.947183647454E+02   -0.47327E-03   -0.22752E-02  6352   0.389E-01    0.624E-02
RMM:   2    -0.947184181809E+02   -0.53436E-04   -0.58476E-04  5862   0.900E-02    0.324E-02
RMM:   3    -0.947184440087E+02   -0.25828E-04   -0.23242E-04  6780   0.522E-02    0.124E-02
RMM:   4    -0.947184481026E+02   -0.40939E-05   -0.43723E-05  4688   0.205E-02
  69 F= -.97811102E+02 E0= -.97808066E+02  d E =-.454521E-03
       N       E                     dE             d eps       ncg     rms          rms(c)
DAV:   1    -0.947190486051E+02   -0.60460E-03   -0.20395E-01  5568   0.116E+00    0.905E-02
RMM:   2    -0.947195279292E+02   -0.47932E-03   -0.49316E-03  5963   0.262E-01    0.542E-02
RMM:   3    -0.947197514964E+02   -0.22357E-03   -0.19320E-03  7501   0.149E-01    0.537E-02
RMM:   4    -0.947196959267E+02    0.55570E-04   -0.24302E-04  6904   0.485E-02    0.386E-02
RMM:   5    -0.947196939733E+02    0.19534E-05   -0.53644E-05  5338   0.221E-02
  70 F= -.97812054E+02 E0= -.97809051E+02  d E =-.140640E-02
       N       E                     dE             d eps       ncg     rms          rms(c)
DAV:   1    -0.947180596023E+02    0.16363E-02   -0.81470E-01  5592   0.233E+00    0.185E-01
RMM:   2    -0.947199380015E+02   -0.18784E-02   -0.19716E-02  6059   0.526E-01    0.112E-01
RMM:   3    -0.947207961387E+02   -0.85814E-03   -0.77618E-03  7747   0.298E-01    0.104E-01
RMM:   4    -0.947206260013E+02    0.17014E-03   -0.95992E-04  7573   0.955E-02    0.801E-02
RMM:   5    -0.947206014423E+02    0.24559E-04   -0.20452E-04  7053   0.402E-02    0.691E-02
RMM:   6    -0.947206030283E+02   -0.15860E-05   -0.66577E-05  5284   0.205E-02
  71 F= -.97812379E+02 E0= -.97809432E+02  d E =-.173126E-02
       N       E                     dE             d eps       ncg     rms          rms(c)
DAV:   1    -0.947200497344E+02    0.55171E-03   -0.13726E-01  5776   0.959E-01    0.540E-02
RMM:   2    -0.947203943350E+02   -0.34460E-03   -0.33999E-03  5895   0.217E-01    0.421E-02
RMM:   3    -0.947205039489E+02   -0.10961E-03   -0.12664E-03  7188   0.121E-01    0.400E-02
RMM:   4    -0.947204952190E+02    0.87299E-05   -0.14156E-04  6377   0.380E-02    0.385E-02
RMM:   5    -0.947204957170E+02   -0.49799E-06   -0.25498E-05  4084   0.178E-02
  72 F= -.97812511E+02 E0= -.97809540E+02  d E =-.186277E-02
       N       E                     dE             d eps       ncg     rms          rms(c)
DAV:   1    -0.947205279565E+02   -0.32738E-04   -0.91250E-03  6176   0.249E-01    0.384E-02
RMM:   2    -0.947205516596E+02   -0.23703E-04   -0.23972E-04  5552   0.560E-02    0.189E-02
RMM:   3    -0.947205715327E+02   -0.19873E-04   -0.85943E-05  5200   0.318E-02    0.185E-02
RMM:   4    -0.947205610651E+02    0.10468E-04   -0.18813E-05  3267   0.158E-02    0.502E-03
RMM:   5    -0.947205612079E+02   -0.14271E-06   -0.68993E-06  2940   0.883E-03
  73 F= -.97812514E+02 E0= -.97809550E+02  d E =-.186609E-02
       N       E                     dE             d eps       ncg     rms          rms(c)
DAV:   1    -0.947208586054E+02   -0.29754E-03   -0.79335E-02  5712   0.705E-01    0.522E-02
RMM:   2    -0.947210012573E+02   -0.14265E-03   -0.14923E-03  5775   0.154E-01    0.221E-02
RMM:   3    -0.947210733580E+02   -0.72101E-04   -0.69165E-04  7295   0.880E-02    0.195E-02
RMM:   4    -0.947210783960E+02   -0.50380E-05   -0.75788E-05  5568   0.271E-02
  74 F= -.97812828E+02 E0= -.97809853E+02  d E =-.313491E-03
       N       E                     dE             d eps       ncg     rms          rms(c)
DAV:   1    -0.947207889174E+02    0.28444E-03   -0.45869E-01  5592   0.169E+00    0.117E-01
RMM:   2    -0.947216241535E+02   -0.83524E-03   -0.87289E-03  5956   0.375E-01    0.501E-02
RMM:   3    -0.947220403480E+02   -0.41619E-03   -0.41061E-03  7645   0.214E-01    0.479E-02
RMM:   4    -0.947220732578E+02   -0.32910E-04   -0.41744E-04  7254   0.641E-02    0.543E-02
RMM:   5    -0.947220764963E+02   -0.32385E-05   -0.81184E-05  5973   0.266E-02
  75 F= -.97813338E+02 E0= -.97810349E+02  d E =-.823753E-03
       N       E                     dE             d eps       ncg     rms          rms(c)
DAV:   1    -0.947178828283E+02    0.41904E-02   -0.18329E+00  5560   0.339E+00    0.223E-01
RMM:   2    -0.947212307338E+02   -0.33479E-02   -0.35067E-02  5995   0.753E-01    0.980E-02
RMM:   3    -0.947229147862E+02   -0.16841E-02   -0.16594E-02  7870   0.430E-01    0.102E-01
RMM:   4    -0.947230372105E+02   -0.12242E-03   -0.16143E-03  7583   0.127E-01    0.115E-01
RMM:   5    -0.947230402848E+02   -0.30742E-05   -0.32855E-04  7641   0.533E-02    0.118E-01
RMM:   6    -0.947230495192E+02   -0.92344E-05   -0.98794E-05  5403   0.238E-02
  76 F= -.97813343E+02 E0= -.97810320E+02  d E =-.828950E-03
       N       E                     dE             d eps       ncg     rms          rms(c)
DAV:   1    -0.947196796357E+02    0.33606E-02   -0.99249E-01  5584   0.250E+00    0.163E-01
RMM:   2    -0.947215419325E+02   -0.18623E-02   -0.19122E-02  5982   0.550E-01    0.663E-02
RMM:   3    -0.947224232116E+02   -0.88128E-03   -0.87878E-03  7601   0.314E-01    0.699E-02
RMM:   4    -0.947224598910E+02   -0.36679E-04   -0.83002E-04  7416   0.910E-02    0.715E-02
RMM:   5    -0.947224719662E+02   -0.12075E-04   -0.15119E-04  7145   0.367E-02    0.734E-02
RMM:   6    -0.947224738113E+02   -0.18451E-05   -0.32522E-05  4591   0.157E-02
  77 F= -.97813478E+02 E0= -.97810487E+02  d E =-.964144E-03
       N       E                     dE             d eps       ncg     rms          rms(c)
DAV:   1    -0.947221807844E+02    0.29118E-03   -0.24754E-01  5744   0.125E+00    0.147E-01
RMM:   2    -0.947226297113E+02   -0.44893E-03   -0.47105E-03  5881   0.274E-01    0.687E-02
RMM:   3    -0.947228741995E+02   -0.24449E-03   -0.21798E-03  7455   0.156E-01    0.336E-02
RMM:   4    -0.947228752442E+02   -0.10446E-05   -0.20189E-04  6882   0.462E-02    0.299E-02
RMM:   5    -0.947228684405E+02    0.68037E-05   -0.43779E-05  5189   0.208E-02
  78 F= -.97813517E+02 E0= -.97810507E+02  d E =-.100252E-02
       N       E                     dE             d eps       ncg     rms          rms(c)
DAV:   1    -0.947225950107E+02    0.28023E-03   -0.45945E-02  5816   0.537E-01    0.555E-02
RMM:   2    -0.947226779745E+02   -0.82964E-04   -0.87090E-04  5689   0.117E-01    0.250E-02
RMM:   3    -0.947227219093E+02   -0.43935E-04   -0.39207E-04  6763   0.662E-02    0.148E-02
RMM:   4    -0.947227226047E+02   -0.69537E-06   -0.42545E-05  4542   0.212E-02
  79 F= -.97813524E+02 E0= -.97810529E+02  d E =-.101044E-02
       N       E                     dE             d eps       ncg     rms          rms(c)
DAV:   1    -0.947227642067E+02   -0.42297E-04   -0.79421E-03  6128   0.227E-01    0.284E-02
RMM:   2    -0.947227792480E+02   -0.15041E-04   -0.16110E-04  5560   0.499E-02    0.138E-02
RMM:   3    -0.947227889925E+02   -0.97445E-05   -0.70800E-05  4306   0.289E-02
  80 F= -.97813527E+02 E0= -.97810522E+02  d E =-.101252E-02
       N       E                     dE             d eps       ncg     rms          rms(c)
DAV:   1    -0.947227450205E+02    0.34228E-04   -0.20504E-03  5936   0.126E-01    0.164E-02
RMM:   2    -0.947227558324E+02   -0.10812E-04   -0.66703E-05  4903   0.318E-02    0.133E-02
RMM:   3    -0.947227546134E+02    0.12190E-05   -0.27729E-05  3593   0.179E-02
  81 F= -.97813526E+02 E0= -.97810528E+02  d E =-.101151E-02
       N       E                     dE             d eps       ncg     rms          rms(c)
DAV:   1    -0.947227683236E+02   -0.12491E-04   -0.49765E-04  6072   0.620E-02    0.831E-03
RMM:   2    -0.947227700341E+02   -0.17105E-05   -0.17263E-05  2835   0.157E-02
  82 F= -.97813524E+02 E0= -.97810521E+02  d E =-.101024E-02
       N       E                     dE             d eps       ncg     rms          rms(c)
DAV:   1    -0.947232620191E+02   -0.49370E-03   -0.40522E-02  5712   0.508E-01    0.454E-02
RMM:   2    -0.947233544000E+02   -0.92381E-04   -0.10385E-03  5903   0.105E-01    0.214E-02
RMM:   3    -0.947233868458E+02   -0.32446E-04   -0.34484E-04  6851   0.580E-02    0.171E-02
RMM:   4    -0.947233886300E+02   -0.17843E-05   -0.46084E-05  4640   0.207E-02
  83 F= -.97813977E+02 E0= -.97810965E+02  d E =-.452377E-03
       N       E                     dE             d eps       ncg     rms          rms(c)
DAV:   1    -0.947236322626E+02   -0.24542E-03   -0.69121E-02  5696   0.664E-01    0.597E-02
RMM:   2    -0.947238182787E+02   -0.18602E-03   -0.18151E-03  6006   0.142E-01    0.399E-02
RMM:   3    -0.947238792190E+02   -0.60940E-04   -0.65513E-04  7413   0.795E-02    0.430E-02
RMM:   4    -0.947238468727E+02    0.32346E-04   -0.73372E-05  5572   0.270E-02    0.265E-02
RMM:   5    -0.947238483781E+02   -0.15053E-05   -0.21813E-05  4002   0.139E-02
  84 F= -.97814220E+02 E0= -.97811188E+02  d E =-.695270E-03
       N       E                     dE             d eps       ncg     rms          rms(c)
DAV:   1    -0.947242861286E+02   -0.43926E-03   -0.43767E-02  5648   0.536E-01    0.512E-02
RMM:   2    -0.947243971993E+02   -0.11107E-03   -0.12000E-03  5963   0.116E-01    0.249E-02
RMM:   3    -0.947244426491E+02   -0.45450E-04   -0.37791E-04  7175   0.628E-02    0.259E-02
RMM:   4    -0.947244318299E+02    0.10819E-04   -0.54290E-05  5181   0.230E-02    0.180E-02
RMM:   5    -0.947244316602E+02    0.16969E-06   -0.13879E-05  3530   0.122E-02
  85 F= -.97814629E+02 E0= -.97811613E+02  d E =-.409181E-03
       N       E                     dE             d eps       ncg     rms          rms(c)
DAV:   1    -0.947246203198E+02   -0.18849E-03   -0.92093E-02  5600   0.776E-01    0.765E-02
RMM:   2    -0.947248378177E+02   -0.21750E-03   -0.24292E-03  6034   0.165E-01    0.406E-02
RMM:   3    -0.947249051153E+02   -0.67298E-04   -0.78335E-04  7469   0.900E-02    0.252E-02
RMM:   4    -0.947249099585E+02   -0.48432E-05   -0.11541E-04  5965   0.316E-02    0.242E-02
RMM:   5    -0.947249101245E+02   -0.16600E-06   -0.29729E-05  4499   0.160E-02
  86 F= -.97814854E+02 E0= -.97811865E+02  d E =-.634839E-03
       N       E                     dE             d eps       ncg     rms          rms(c)
DAV:   1    -0.947253202405E+02   -0.41028E-03   -0.52836E-02  5704   0.587E-01    0.496E-02
RMM:   2    -0.947254521215E+02   -0.13188E-03   -0.11837E-03  6019   0.124E-01    0.334E-02
RMM:   3    -0.947254917127E+02   -0.39591E-04   -0.47000E-04  7518   0.701E-02    0.343E-02
RMM:   4    -0.947254742292E+02    0.17483E-04   -0.58147E-05  5448   0.248E-02    0.211E-02
RMM:   5    -0.947254765133E+02   -0.22841E-05   -0.17701E-05  3526   0.132E-02
  87 F= -.97815237E+02 E0= -.97812235E+02  d E =-.382902E-03
       N       E                     dE             d eps       ncg     rms          rms(c)
DAV:   1    -0.947253888401E+02    0.85389E-04   -0.47335E-01  5456   0.175E+00    0.156E-01
RMM:   2    -0.947263425499E+02   -0.95371E-03   -0.10397E-02  6126   0.369E-01    0.760E-02
RMM:   3    -0.947269553755E+02   -0.61283E-03   -0.41701E-03  7962   0.207E-01    0.961E-02
RMM:   4    -0.947267417215E+02    0.21365E-03   -0.51225E-04  7688   0.699E-02    0.577E-02
RMM:   5    -0.947267497697E+02   -0.80482E-05   -0.99767E-05  6244   0.291E-02
  88 F= -.97815962E+02 E0= -.97812935E+02  d E =-.110794E-02
       N       E                     dE             d eps       ncg     rms          rms(c)
DAV:   1    -0.947268864480E+02   -0.14473E-03   -0.57402E-02  5848   0.608E-01    0.582E-02
RMM:   2    -0.947270090683E+02   -0.12262E-03   -0.12734E-03  6128   0.129E-01    0.367E-02
RMM:   3    -0.947270739190E+02   -0.64851E-04   -0.52869E-04  7588   0.737E-02    0.421E-02
RMM:   4    -0.947270489504E+02    0.24969E-04   -0.73785E-05  5811   0.269E-02    0.281E-02
RMM:   5    -0.947270503989E+02   -0.14484E-05   -0.25216E-05  3944   0.144E-02
  89 F= -.97816073E+02 E0= -.97813039E+02  d E =-.121889E-02
       N       E                     dE             d eps       ncg     rms          rms(c)
DAV:   1    -0.947271275885E+02   -0.78638E-04   -0.37178E-02  5664   0.490E-01    0.440E-02
RMM:   2    -0.947272030790E+02   -0.75491E-04   -0.82019E-04  6015   0.104E-01    0.235E-02
RMM:   3    -0.947272509391E+02   -0.47860E-04   -0.33704E-04  7304   0.587E-02    0.300E-02
RMM:   4    -0.947272326091E+02    0.18330E-04   -0.45198E-05  4951   0.213E-02    0.178E-02
RMM:   5    -0.947272337987E+02   -0.11896E-05   -0.13693E-05  3370   0.119E-02
  90 F= -.97816104E+02 E0= -.97813066E+02  d E =-.124979E-02
       N       E                     dE             d eps       ncg     rms          rms(c)
DAV:   1    -0.947275474400E+02   -0.31483E-03   -0.45474E-02  6128   0.493E-01    0.419E-02
RMM:   2    -0.947276462238E+02   -0.98784E-04   -0.99533E-04  5936   0.114E-01    0.254E-02
RMM:   3    -0.947276952013E+02   -0.48977E-04   -0.45121E-04  7036   0.652E-02    0.251E-02
RMM:   4    -0.947276850029E+02    0.10198E-04   -0.46988E-05  4863   0.217E-02    0.187E-02
RMM:   5    -0.947276841224E+02    0.88046E-06   -0.10742E-05  3183   0.116E-02
  91 F= -.97816426E+02 E0= -.97813382E+02  d E =-.321462E-03
       N       E                     dE             d eps       ncg     rms          rms(c)
DAV:   1    -0.947275027539E+02    0.18225E-03   -0.30130E-01  5848   0.127E+00    0.109E-01
RMM:   2    -0.947281398955E+02   -0.63714E-03   -0.65588E-03  6068   0.291E-01    0.597E-02
RMM:   3    -0.947285019423E+02   -0.36205E-03   -0.30057E-03  7656   0.168E-01    0.640E-02
RMM:   4    -0.947284215521E+02    0.80390E-04   -0.27344E-04  7185   0.508E-02    0.460E-02
RMM:   5    -0.947284165190E+02    0.50331E-05   -0.53899E-05  5433   0.220E-02
  92 F= -.97816827E+02 E0= -.97813769E+02  d E =-.723262E-03
       N       E                     dE             d eps       ncg     rms          rms(c)
DAV:   1    -0.947286195597E+02   -0.19801E-03   -0.13162E-02  6048   0.268E-01    0.235E-02
RMM:   2    -0.947286495482E+02   -0.29989E-04   -0.30566E-04  5812   0.624E-02    0.140E-02
RMM:   3    -0.947286653007E+02   -0.15752E-04   -0.14154E-04  5616   0.369E-02    0.146E-02
RMM:   4    -0.947286659278E+02   -0.62714E-06   -0.17711E-05  3307   0.146E-02
  93 F= -.97817015E+02 E0= -.97813967E+02  d E =-.187232E-03
       N       E                     dE             d eps       ncg     rms          rms(c)
DAV:   1    -0.947288174800E+02   -0.15218E-03   -0.11721E-01  5776   0.800E-01    0.598E-02
RMM:   2    -0.947290498698E+02   -0.23239E-03   -0.24955E-03  5891   0.179E-01    0.296E-02
RMM:   3    -0.947291603685E+02   -0.11050E-03   -0.11182E-03  7370   0.102E-01    0.300E-02
RMM:   4    -0.947291651042E+02   -0.47357E-05   -0.10502E-04  5899   0.314E-02    0.318E-02
RMM:   5    -0.947291648077E+02    0.29649E-06   -0.23653E-05  3733   0.147E-02
  94 F= -.97817327E+02 E0= -.97814308E+02  d E =-.499976E-03
