       N       E                     dE             d eps       ncg     rms          rms(c)
DAV:   1     0.284807191723E+04    0.28481E+04   -0.88269E+04  6992   0.225E+03
DAV:   2     0.564299188429E+03   -0.22838E+04   -0.21870E+04  5632   0.744E+02
DAV:   3    -0.118799992191E+02   -0.57618E+03   -0.54937E+03  6544   0.264E+02
DAV:   4    -0.944840998782E+02   -0.82604E+02   -0.80833E+02  7784   0.102E+02
DAV:   5    -0.100658623460E+03   -0.61745E+01   -0.60979E+01  8128   0.276E+01    0.293E+01
DAV:   6    -0.100414358712E+03    0.24426E+00   -0.51282E+01  9032   0.238E+01    0.375E+01
DAV:   7    -0.986710571707E+02    0.17433E+01   -0.15992E+02  7272   0.341E+01    0.198E+01
DAV:   8    -0.987238820323E+02   -0.52825E-01   -0.46391E+01  7624   0.207E+01    0.190E+01
DAV:   9    -0.952108926812E+02    0.35130E+01   -0.22628E+01  7088   0.102E+01    0.124E+01
DAV:  10    -0.926023589248E+02    0.26085E+01   -0.64615E+00  7592   0.872E+00    0.892E+00
DAV:  11    -0.913536201241E+02    0.12487E+01   -0.25099E+00  8288   0.594E+00    0.485E+00
DAV:  12    -0.910399782150E+02    0.31364E+00   -0.76486E-01  7464   0.284E+00    0.179E+00
DAV:  13    -0.910176868754E+02    0.22291E-01   -0.12301E-01  8240   0.168E+00    0.118E+00
DAV:  14    -0.910302697888E+02   -0.12583E-01   -0.10850E-01  7384   0.114E+00    0.123E+00
DAV:  15    -0.910092220058E+02    0.21048E-01   -0.45720E-02  7216   0.742E-01    0.298E-01
DAV:  16    -0.910117944700E+02   -0.25725E-02   -0.14717E-02  7168   0.402E-01    0.491E-01
DAV:  17    -0.910088882945E+02    0.29062E-02   -0.14843E-02  8272   0.329E-01    0.154E-01
DAV:  18    -0.910088807478E+02    0.75467E-05   -0.17949E-03  7456   0.223E-01    0.211E-01
DAV:  19    -0.910085263372E+02    0.35441E-03   -0.43710E-03  6416   0.201E-01    0.133E-01
DAV:  20    -0.910084236402E+02    0.10270E-03   -0.48140E-04  6856   0.886E-02    0.774E-02
DAV:  21    -0.910086652699E+02   -0.24163E-03   -0.10622E-03  5576   0.846E-02    0.913E-02
DAV:  22    -0.910088265674E+02   -0.16130E-03   -0.40578E-04  5248   0.633E-02    0.131E-02
DAV:  23    -0.910091226139E+02   -0.29605E-03   -0.71840E-05  4992   0.222E-02    0.826E-03
DAV:  24    -0.910094248254E+02   -0.30221E-03   -0.21181E-05  4872   0.167E-02    0.895E-03
DAV:  25    -0.910095833027E+02   -0.15848E-03   -0.69096E-06  4424   0.127E-02    0.898E-03
DAV:  26    -0.910096833610E+02   -0.10006E-03   -0.64374E-06  4096   0.123E-02    0.362E-03
DAV:  27    -0.910097037744E+02   -0.20413E-04   -0.19621E-06  4152   0.823E-03    0.851E-04
DAV:  28    -0.910097133134E+02   -0.95391E-05   -0.13527E-06  3632   0.496E-03
   1 F= -.93957831E+02 E0= -.93962255E+02  d E =-.939578E+02
       N       E                     dE             d eps       ncg     rms          rms(c)
DAV:   1    -0.910086704787E+02    0.10333E-02   -0.69518E-01  5936   0.228E+00    0.174E-01
DAV:   2    -0.910105851390E+02   -0.19147E-02   -0.24160E-02  6920   0.508E-01    0.121E-01
DAV:   3    -0.910106144809E+02   -0.29342E-04   -0.28861E-03  7528   0.245E-01    0.785E-02
DAV:   4    -0.910106910103E+02   -0.76529E-04   -0.17703E-03  7280   0.234E-01    0.832E-02
DAV:   5    -0.910106352991E+02    0.55711E-04   -0.12775E-03  7512   0.129E-01    0.956E-02
DAV:   6    -0.910105506236E+02    0.84676E-04   -0.48348E-04  6792   0.551E-02    0.347E-02
DAV:   7    -0.910105353012E+02    0.15322E-04   -0.71901E-05  5336   0.446E-02    0.995E-03
DAV:   8    -0.910105351167E+02    0.18450E-06   -0.28059E-05  4680   0.193E-02
   2 F= -.93958792E+02 E0= -.93963134E+02  d E =-.960657E-03
       N       E                     dE             d eps       ncg     rms          rms(c)
DAV:   1    -0.910111960708E+02   -0.66077E-03   -0.11378E-01  5936   0.921E-01    0.712E-02
DAV:   2    -0.910114892109E+02   -0.29314E-03   -0.39209E-03  6728   0.207E-01    0.496E-02
DAV:   3    -0.910115008848E+02   -0.11674E-04   -0.54229E-04  7048   0.114E-01    0.359E-02
DAV:   4    -0.910115184220E+02   -0.17537E-04   -0.38150E-04  6208   0.962E-02    0.466E-02
DAV:   5    -0.910114979848E+02    0.20437E-04   -0.20711E-04  5672   0.415E-02    0.358E-02
DAV:   6    -0.910114854962E+02    0.12489E-04   -0.70695E-05  5528   0.320E-02    0.138E-02
DAV:   7    -0.910114837112E+02    0.17850E-05   -0.16378E-05  4224   0.218E-02
   3 F= -.93959683E+02 E0= -.93964059E+02  d E =-.185172E-02
       N       E                     dE             d eps       ncg     rms          rms(c)
DAV:   1    -0.910123952897E+02   -0.90979E-03   -0.29381E-01  6088   0.158E+00    0.835E-02
DAV:   2    -0.910133135295E+02   -0.91824E-03   -0.95594E-03  6808   0.350E-01    0.540E-02
DAV:   3    -0.910133395569E+02   -0.26027E-04   -0.52407E-04  7808   0.105E-01    0.427E-02
DAV:   4    -0.910133701450E+02   -0.30588E-04   -0.28810E-04  6248   0.593E-02    0.615E-02
DAV:   5    -0.910133434231E+02    0.26722E-04   -0.26152E-04  5648   0.575E-02    0.232E-02
DAV:   6    -0.910133273871E+02    0.16036E-04   -0.11141E-04  4512   0.571E-02    0.984E-03
DAV:   7    -0.910133261494E+02    0.12377E-05   -0.12283E-05  3872   0.224E-02
   4 F= -.93961757E+02 E0= -.93966077E+02  d E =-.207354E-02
       N       E                     dE             d eps       ncg     rms          rms(c)
DAV:   1    -0.910127454705E+02    0.58192E-03   -0.39073E-01  6072   0.182E+00    0.963E-02
DAV:   2    -0.910139684485E+02   -0.12230E-02   -0.12759E-02  6832   0.405E-01    0.619E-02
DAV:   3    -0.910140006845E+02   -0.32236E-04   -0.68893E-04  8120   0.122E-01    0.453E-02
DAV:   4    -0.910140446323E+02   -0.43948E-04   -0.34108E-04  6368   0.748E-02    0.694E-02
DAV:   5    -0.910140111582E+02    0.33474E-04   -0.31712E-04  5792   0.517E-02    0.300E-02
DAV:   6    -0.910139886017E+02    0.22557E-04   -0.15144E-04  4528   0.636E-02    0.119E-02
DAV:   7    -0.910139868959E+02    0.17059E-05   -0.16372E-05  4144   0.259E-02
   5 F= -.93962690E+02 E0= -.93966945E+02  d E =-.300680E-02
       N       E                     dE             d eps       ncg     rms          rms(c)
DAV:   1    -0.910137374869E+02    0.25111E-03   -0.31246E-01  5984   0.164E+00    0.962E-02
DAV:   2    -0.910146723109E+02   -0.93482E-03   -0.10882E-02  6776   0.357E-01    0.603E-02
DAV:   3    -0.910147647832E+02   -0.92472E-04   -0.11939E-03  7792   0.136E-01    0.802E-02
DAV:   4    -0.910147259818E+02    0.38801E-04   -0.43043E-04  6512   0.578E-02    0.517E-02
DAV:   5    -0.910147258142E+02    0.16761E-06   -0.26862E-04  5680   0.733E-02    0.354E-02
DAV:   6    -0.910147050445E+02    0.20770E-04   -0.15423E-04  5448   0.595E-02    0.183E-02
DAV:   7    -0.910147032955E+02    0.17490E-05   -0.33875E-05  5152   0.230E-02
   6 F= -.93963779E+02 E0= -.93968002E+02  d E =-.108935E-02
       N       E                     dE             d eps       ncg     rms          rms(c)
DAV:   1    -0.910146492072E+02    0.55837E-04   -0.51137E-03  6112   0.212E-01    0.170E-02
DAV:   2    -0.910146653735E+02   -0.16166E-04   -0.21125E-04  6912   0.520E-02    0.829E-03
DAV:   3    -0.910146679248E+02   -0.25513E-05   -0.21531E-05  4712   0.180E-02
   7 F= -.93963792E+02 E0= -.93968011E+02  d E =-.110213E-02
       N       E                     dE             d eps       ncg     rms          rms(c)
DAV:   1    -0.910145819507E+02    0.83423E-04   -0.29271E-01  6056   0.160E+00    0.625E-02
DAV:   2    -0.910155118471E+02   -0.92990E-03   -0.96381E-03  6936   0.339E-01    0.305E-02
DAV:   3    -0.910155455199E+02   -0.33673E-04   -0.40318E-04  8256   0.741E-02    0.216E-02
DAV:   4    -0.910155546618E+02   -0.91419E-05   -0.71230E-05  5808   0.452E-02
   8 F= -.93965094E+02 E0= -.93969290E+02  d E =-.130190E-02
       N       E                     dE             d eps       ncg     rms          rms(c)
DAV:   1    -0.910080294987E+02    0.75160E-02   -0.26307E+00  6008   0.482E+00    0.188E-01
DAV:   2    -0.910170603947E+02   -0.90309E-02   -0.92288E-02  7080   0.104E+00    0.160E-01
DAV:   3    -0.910178151359E+02   -0.75474E-03   -0.87836E-03  8400   0.327E-01    0.240E-01
DAV:   4    -0.910171125325E+02    0.70260E-03   -0.26727E-03  7328   0.181E-01    0.592E-02
DAV:   5    -0.910171218135E+02   -0.92810E-05   -0.25212E-04  6712   0.717E-02    0.226E-02
DAV:   6    -0.910171269561E+02   -0.51426E-05   -0.82455E-05  5880   0.540E-02
   9 F= -.93967933E+02 E0= -.93972014E+02  d E =-.414120E-02
       N       E                     dE             d eps       ncg     rms          rms(c)
DAV:   1    -0.909769275863E+02    0.40194E-01   -0.10546E+01  6016   0.969E+00    0.370E-01
DAV:   2    -0.910143342517E+02   -0.37407E-01   -0.38646E-01  6944   0.212E+00    0.198E-01
DAV:   3    -0.910168956953E+02   -0.25614E-02   -0.22998E-02  8504   0.575E-01    0.346E-01
DAV:   4    -0.910154842909E+02    0.14114E-02   -0.75147E-03  7312   0.311E-01    0.125E-01
DAV:   5    -0.910155326182E+02   -0.48327E-04   -0.96383E-04  7088   0.149E-01    0.825E-02
DAV:   6    -0.910154765677E+02    0.56051E-04   -0.10356E-03  7280   0.181E-01    0.387E-02
DAV:   7    -0.910154521034E+02    0.24464E-04   -0.27227E-04  6264   0.940E-02    0.156E-02
DAV:   8    -0.910154510657E+02    0.10377E-05   -0.52038E-05  5608   0.373E-02
  10 F= -.93968887E+02 E0= -.93972734E+02  d E =-.509517E-02
       N       E                     dE             d eps       ncg     rms          rms(c)
DAV:   1    -0.910118361195E+02    0.36160E-02   -0.15059E+00  6024   0.363E+00    0.142E-01
DAV:   2    -0.910168086670E+02   -0.49725E-02   -0.50952E-02  7024   0.796E-01    0.111E-01
DAV:   3    -0.910172671555E+02   -0.45849E-03   -0.47889E-03  8040   0.260E-01    0.181E-01
DAV:   4    -0.910168602091E+02    0.40695E-03   -0.15332E-03  7760   0.136E-01    0.432E-02
DAV:   5    -0.910168658103E+02   -0.56012E-05   -0.14885E-04  6224   0.716E-02    0.188E-02
DAV:   6    -0.910168695766E+02   -0.37663E-05   -0.10490E-04  5504   0.607E-02    0.134E-02
DAV:   7    -0.910168655063E+02    0.40703E-05   -0.37260E-05  4208   0.377E-02
  11 F= -.93969292E+02 E0= -.93973232E+02  d E =-.549977E-02
       N       E                     dE             d eps       ncg     rms          rms(c)
DAV:   1    -0.910111531472E+02    0.57164E-02   -0.11558E+00  5992   0.333E+00    0.196E-01
DAV:   2    -0.910152446259E+02   -0.40915E-02   -0.48575E-02  6976   0.735E-01    0.131E-01
DAV:   3    -0.910157862828E+02   -0.54166E-03   -0.71277E-03  7720   0.392E-01    0.179E-01
DAV:   4    -0.910154316256E+02    0.35466E-03   -0.31099E-03  7392   0.205E-01    0.110E-01
DAV:   5    -0.910154104260E+02    0.21200E-04   -0.69559E-04  6888   0.107E-01    0.795E-02
DAV:   6    -0.910153469117E+02    0.63514E-04   -0.53258E-04  6880   0.113E-01    0.391E-02
DAV:   7    -0.910153308441E+02    0.16068E-04   -0.13711E-04  5504   0.552E-02    0.239E-02
DAV:   8    -0.910153210366E+02    0.98075E-05   -0.89174E-05  5752   0.370E-02
  12 F= -.93968294E+02 E0= -.93972193E+02  d E =0.997555E-03
       N       E                     dE             d eps       ncg     rms          rms(c)
DAV:   1    -0.910160956890E+02   -0.76484E-03   -0.40281E-01  5984   0.196E+00    0.117E-01
DAV:   2    -0.910174639920E+02   -0.13683E-02   -0.16630E-02  6960   0.438E-01    0.804E-02
DAV:   3    -0.910176776171E+02   -0.21363E-03   -0.26747E-03  7536   0.231E-01    0.115E-01
DAV:   4    -0.910175233745E+02    0.15424E-03   -0.11080E-03  7152   0.126E-01    0.643E-02
DAV:   5    -0.910175196511E+02    0.37234E-05   -0.23722E-04  6480   0.689E-02    0.478E-02
DAV:   6    -0.910175000594E+02    0.19592E-04   -0.20154E-04  6144   0.672E-02    0.245E-02
DAV:   7    -0.910174932383E+02    0.68211E-05   -0.52739E-05  5296   0.327E-02
  13 F= -.93970142E+02 E0= -.93974062E+02  d E =-.849867E-03
       N       E                     dE             d eps       ncg     rms          rms(c)
DAV:   1    -0.910155176337E+02    0.19824E-02   -0.88263E-01  6000   0.296E+00    0.136E-01
DAV:   2    -0.910187501809E+02   -0.32325E-02   -0.33728E-02  6832   0.646E-01    0.954E-02
DAV:   3    -0.910190699989E+02   -0.31982E-03   -0.32485E-03  8368   0.260E-01    0.141E-01
DAV:   4    -0.910188360629E+02    0.23394E-03   -0.13362E-03  7408   0.123E-01    0.571E-02
DAV:   5    -0.910188523454E+02   -0.16283E-04   -0.22601E-04  5888   0.811E-02    0.390E-02
DAV:   6    -0.910188241420E+02    0.28203E-04   -0.23802E-04  6136   0.850E-02    0.146E-02
DAV:   7    -0.910188231691E+02    0.97294E-06   -0.33392E-05  4872   0.287E-02
  14 F= -.93971818E+02 E0= -.93975765E+02  d E =-.167595E-02
       N       E                     dE             d eps       ncg     rms          rms(c)
DAV:   1    -0.910164351519E+02    0.23890E-02   -0.69742E-01  6008   0.263E+00    0.120E-01
DAV:   2    -0.910189786758E+02   -0.25435E-02   -0.26593E-02  6872   0.572E-01    0.812E-02
DAV:   3    -0.910192097306E+02   -0.23105E-03   -0.23151E-03  8280   0.217E-01    0.113E-01
DAV:   4    -0.910190661102E+02    0.14362E-03   -0.99419E-04  7152   0.115E-01    0.548E-02
DAV:   5    -0.910190787997E+02   -0.12689E-04   -0.20164E-04  6144   0.705E-02    0.383E-02
DAV:   6    -0.910190520444E+02    0.26755E-04   -0.18804E-04  6032   0.757E-02    0.126E-02
DAV:   7    -0.910190516478E+02    0.39661E-06   -0.24874E-05  4352   0.269E-02
  15 F= -.93972368E+02 E0= -.93976331E+02  d E =-.222616E-02
       N       E                     dE             d eps       ncg     rms          rms(c)
DAV:   1    -0.910189716404E+02    0.80404E-04   -0.21994E-01  5968   0.150E+00    0.727E-02
DAV:   2    -0.910198071502E+02   -0.83551E-03   -0.90497E-03  6936   0.328E-01    0.525E-02
DAV:   3    -0.910199008272E+02   -0.93677E-04   -0.85574E-04  7712   0.103E-01    0.773E-02
DAV:   4    -0.910198414541E+02    0.59373E-04   -0.35356E-04  6000   0.632E-02    0.344E-02
DAV:   5    -0.910198386572E+02    0.27970E-05   -0.76113E-05  5208   0.400E-02
  16 F= -.93973360E+02 E0= -.93977334E+02  d E =-.992020E-03
       N       E                     dE             d eps       ncg     rms          rms(c)
DAV:   1    -0.910189974174E+02    0.84404E-03   -0.26439E-01  5952   0.165E+00    0.847E-02
DAV:   2    -0.910199922266E+02   -0.99481E-03   -0.10896E-02  6984   0.368E-01    0.680E-02
DAV:   3    -0.910200715167E+02   -0.79290E-04   -0.11383E-03  7336   0.149E-01    0.763E-02
DAV:   4    -0.910200405749E+02    0.30942E-04   -0.41905E-04  6800   0.535E-02    0.496E-02
DAV:   5    -0.910200328236E+02    0.77513E-05   -0.27816E-04  5424   0.771E-02    0.329E-02
DAV:   6    -0.910200173929E+02    0.15431E-04   -0.10597E-04  5112   0.500E-02    0.136E-02
DAV:   7    -0.910200177417E+02   -0.34878E-06   -0.21958E-05  4664   0.186E-02
  17 F= -.93973769E+02 E0= -.93977757E+02  d E =-.140154E-02
       N       E                     dE             d eps       ncg     rms          rms(c)
DAV:   1    -0.910199877193E+02    0.29674E-04   -0.22770E-03  6168   0.155E-01    0.107E-02
DAV:   2    -0.910199971324E+02   -0.94131E-05   -0.11370E-04  6232   0.396E-02    0.612E-03
DAV:   3    -0.910199985713E+02   -0.14390E-05   -0.11250E-05  3512   0.178E-02
  18 F= -.93973772E+02 E0= -.93977759E+02  d E =-.140401E-02
       N       E                     dE             d eps       ncg     rms          rms(c)
DAV:   1    -0.910200052141E+02   -0.80817E-05   -0.45557E-04  6168   0.703E-02    0.575E-03
DAV:   2    -0.910200091878E+02   -0.39737E-05   -0.30467E-05  4600   0.225E-02
  19 F= -.93973773E+02 E0= -.93977757E+02  d E =-.140480E-02
       N       E                     dE             d eps       ncg     rms          rms(c)
DAV:   1    -0.910200008979E+02    0.43162E-05   -0.16661E-04  5952   0.440E-02    0.353E-03
DAV:   2    -0.910200035271E+02   -0.26292E-05   -0.16942E-05  3728   0.199E-02
  20 F= -.93973773E+02 E0= -.93977759E+02  d E =-.140507E-02
       N       E                     dE             d eps       ncg     rms          rms(c)
DAV:   1    -0.910200043065E+02   -0.34087E-05   -0.41897E-05  5104   0.242E-02    0.212E-03
DAV:   2    -0.910200047475E+02   -0.44097E-06   -0.33311E-06  3200   0.900E-03
  21 F= -.93973771E+02 E0= -.93977759E+02  d E =-.140332E-02
       N       E                     dE             d eps       ncg     rms          rms(c)
DAV:   1    -0.910200030646E+02    0.12419E-05   -0.82718E-06  3288   0.116E-02    0.198E-03
DAV:   2    -0.910200039933E+02   -0.92872E-06   -0.48792E-06  3152   0.105E-02
  22 F= -.93973772E+02 E0= -.93977759E+02  d E =-.140414E-02
       N       E                     dE             d eps       ncg     rms          rms(c)
DAV:   1    -0.910200039764E+02   -0.91178E-06   -0.33365E-06  3144   0.787E-03    0.751E-04
DAV:   2    -0.910200040398E+02   -0.63395E-07   -0.34512E-07  3056   0.302E-03
  23 F= -.93973771E+02 E0= -.93977760E+02  d E =-.140340E-02
       N       E                     dE             d eps       ncg     rms          rms(c)
DAV:   1    -0.910200037583E+02    0.21804E-06   -0.22905E-07  3000   0.260E-03    0.823E-04
DAV:   2    -0.910200039360E+02   -0.17769E-06   -0.70298E-07  3056   0.359E-03
  24 F= -.93973772E+02 E0= -.93977760E+02  d E =-.140361E-02
       N       E                     dE             d eps       ncg     rms          rms(c)
DAV:   1    -0.910200481851E+02   -0.44427E-04   -0.31379E-02  6040   0.571E-01    0.230E-02
DAV:   2    -0.910201797135E+02   -0.13153E-03   -0.13543E-03  6520   0.124E-01    0.177E-02
DAV:   3    -0.910201920545E+02   -0.12341E-04   -0.14192E-04  6408   0.513E-02    0.277E-02
DAV:   4    -0.910201818001E+02    0.10254E-04   -0.41736E-05  4624   0.247E-02    0.770E-03
DAV:   5    -0.910201824120E+02   -0.61181E-06   -0.65230E-06  3280   0.145E-02
  25 F= -.93973982E+02 E0= -.93977967E+02  d E =-.210887E-03
       N       E                     dE             d eps       ncg     rms          rms(c)
DAV:   1    -0.910194048674E+02    0.77693E-03   -0.28208E-01  6008   0.171E+00    0.688E-02
DAV:   2    -0.910206020053E+02   -0.11971E-02   -0.12316E-02  6632   0.378E-01    0.545E-02
DAV:   3    -0.910207080010E+02   -0.10600E-03   -0.13446E-03  8128   0.152E-01    0.821E-02
DAV:   4    -0.910206198639E+02    0.88137E-04   -0.37269E-04  6272   0.696E-02    0.249E-02
DAV:   5    -0.910206241909E+02   -0.43270E-05   -0.58625E-05  5048   0.438E-02
  26 F= -.93974526E+02 E0= -.93978496E+02  d E =-.754071E-03
       N       E                     dE             d eps       ncg     rms          rms(c)
DAV:   1    -0.910161999719E+02    0.44199E-02   -0.11274E+00  5992   0.342E+00    0.138E-01
DAV:   2    -0.910210272834E+02   -0.48273E-02   -0.49663E-02  6632   0.755E-01    0.110E-01
DAV:   3    -0.910214464731E+02   -0.41919E-03   -0.54333E-03  8216   0.309E-01    0.164E-01
DAV:   4    -0.910210975345E+02    0.34894E-03   -0.15091E-03  6960   0.138E-01    0.512E-02
DAV:   5    -0.910211149205E+02   -0.17386E-04   -0.25414E-04  6424   0.881E-02    0.412E-02
DAV:   6    -0.910210903366E+02    0.24584E-04   -0.20195E-04  6096   0.770E-02    0.147E-02
DAV:   7    -0.910210928546E+02   -0.25180E-05   -0.40422E-05  5376   0.327E-02
  27 F= -.93975216E+02 E0= -.93979161E+02  d E =-.144466E-02
       N       E                     dE             d eps       ncg     rms          rms(c)
DAV:   1    -0.910002102193E+02    0.20880E-01   -0.45154E+00  5992   0.685E+00    0.278E-01
DAV:   2    -0.910198321545E+02   -0.19622E-01   -0.20256E-01  6744   0.150E+00    0.191E-01
DAV:   3    -0.910217052419E+02   -0.18731E-02   -0.19567E-02  8216   0.576E-01    0.326E-01
DAV:   4    -0.910203025538E+02    0.14027E-02   -0.61733E-03  7112   0.275E-01    0.975E-02
DAV:   5    -0.910203610948E+02   -0.58541E-04   -0.82328E-04  6880   0.157E-01    0.763E-02
DAV:   6    -0.910202793098E+02    0.81785E-04   -0.79633E-04  6536   0.162E-01    0.321E-02
DAV:   7    -0.910202810760E+02   -0.17662E-05   -0.16413E-04  6928   0.640E-02    0.989E-03
DAV:   8    -0.910202833381E+02   -0.22622E-05   -0.25992E-05  4840   0.275E-02
  28 F= -.93974927E+02 E0= -.93978788E+02  d E =-.115513E-02
       N       E                     dE             d eps       ncg     rms          rms(c)
DAV:   1    -0.910114122491E+02    0.88688E-02   -0.22391E+00  6000   0.481E+00    0.197E-01
DAV:   2    -0.910211187513E+02   -0.97065E-02   -0.98888E-02  6528   0.108E+00    0.189E-01
DAV:   3    -0.910218049651E+02   -0.68621E-03   -0.11805E-02  7824   0.466E-01    0.232E-01
DAV:   4    -0.910211136821E+02    0.69128E-03   -0.26886E-03  8024   0.182E-01    0.635E-02
DAV:   5    -0.910211382853E+02   -0.24603E-04   -0.37792E-04  6368   0.115E-01    0.468E-02
DAV:   6    -0.910211101559E+02    0.28129E-04   -0.39469E-04  6416   0.109E-01    0.218E-02
DAV:   7    -0.910211073576E+02    0.27983E-05   -0.79046E-05  5872   0.472E-02
  29 F= -.93975374E+02 E0= -.93979292E+02  d E =-.160205E-02
       N       E                     dE             d eps       ncg     rms          rms(c)
DAV:   1    -0.910211573681E+02   -0.47212E-04   -0.29161E-02  5904   0.554E-01    0.235E-02
DAV:   2    -0.910213000923E+02   -0.14272E-03   -0.14279E-03  6792   0.132E-01    0.297E-02
DAV:   3    -0.910213017315E+02   -0.16392E-05   -0.17652E-04  6128   0.518E-02    0.247E-02
DAV:   4    -0.910212942996E+02    0.74319E-05   -0.28042E-05  4304   0.204E-02
  30 F= -.93975591E+02 E0= -.93979503E+02  d E =-.217802E-03
       N       E                     dE             d eps       ncg     rms          rms(c)
DAV:   1    -0.910207673017E+02    0.53443E-03   -0.17457E-01  5976   0.135E+00    0.548E-02
DAV:   2    -0.910215482186E+02   -0.78092E-03   -0.80290E-03  6752   0.294E-01    0.482E-02
DAV:   3    -0.910216102935E+02   -0.62075E-04   -0.80006E-04  8184   0.105E-01    0.656E-02
DAV:   4    -0.910215574642E+02    0.52829E-04   -0.21222E-04  5448   0.511E-02    0.205E-02
DAV:   5    -0.910215600068E+02   -0.25426E-05   -0.24294E-05  4776   0.307E-02
  31 F= -.93975936E+02 E0= -.93979824E+02  d E =-.561996E-03
       N       E                     dE             d eps       ncg     rms          rms(c)
DAV:   1    -0.910180349841E+02    0.35225E-02   -0.69697E-01  5960   0.270E+00    0.111E-01
DAV:   2    -0.910212093044E+02   -0.31743E-02   -0.32733E-02  6832   0.613E-01    0.923E-02
DAV:   3    -0.910214449830E+02   -0.23568E-03   -0.36883E-03  7952   0.272E-01    0.127E-01
DAV:   4    -0.910212471263E+02    0.19786E-03   -0.96916E-04  7040   0.110E-01    0.463E-02
DAV:   5    -0.910212510448E+02   -0.39185E-05   -0.18121E-04  5744   0.687E-02    0.353E-02
DAV:   6    -0.910212374414E+02    0.13603E-04   -0.10784E-04  5736   0.529E-02    0.120E-02
DAV:   7    -0.910212386314E+02   -0.11899E-05   -0.20475E-05  4352   0.236E-02
  32 F= -.93975784E+02 E0= -.93979625E+02  d E =-.410834E-03
       N       E                     dE             d eps       ncg     rms          rms(c)
DAV:   1    -0.910201707965E+02    0.10666E-02   -0.30981E-01  5952   0.180E+00    0.737E-02
DAV:   2    -0.910215665434E+02   -0.13957E-02   -0.14320E-02  6736   0.407E-01    0.662E-02
DAV:   3    -0.910216708879E+02   -0.10434E-03   -0.16030E-03  7816   0.170E-01    0.870E-02
DAV:   4    -0.910215765493E+02    0.94339E-04   -0.39369E-04  6432   0.668E-02    0.261E-02
DAV:   5    -0.910215814787E+02   -0.49294E-05   -0.63433E-05  5032   0.431E-02
  33 F= -.93976012E+02 E0= -.93979888E+02  d E =-.638190E-03
       N       E                     dE             d eps       ncg     rms          rms(c)
DAV:   1    -0.910214560365E+02    0.12051E-03   -0.16916E-02  5992   0.428E-01    0.191E-02
DAV:   2    -0.910215394692E+02   -0.83433E-04   -0.86466E-04  6800   0.105E-01    0.114E-02
DAV:   3    -0.910215428579E+02   -0.33887E-05   -0.67838E-05  5976   0.475E-02
  34 F= -.93975999E+02 E0= -.93979862E+02  d E =-.625867E-03
       N       E                     dE             d eps       ncg     rms          rms(c)
DAV:   1    -0.910215291654E+02    0.10304E-04   -0.79931E-03  5936   0.292E-01    0.146E-02
DAV:   2    -0.910215758734E+02   -0.46708E-04   -0.43802E-04  6696   0.743E-02    0.278E-02
DAV:   3    -0.910215680129E+02    0.78605E-05   -0.79849E-05  5072   0.356E-02
  35 F= -.93976006E+02 E0= -.93979880E+02  d E =-.632760E-03
       N       E                     dE             d eps       ncg     rms          rms(c)
DAV:   1    -0.910215455910E+02    0.30282E-04   -0.19707E-03  5880   0.146E-01    0.707E-03
DAV:   2    -0.910215558693E+02   -0.10278E-04   -0.10505E-04  5704   0.359E-02    0.811E-03
DAV:   3    -0.910215563861E+02   -0.51689E-06   -0.13054E-05  3768   0.129E-02
  36 F= -.93976004E+02 E0= -.93979868E+02  d E =-.630235E-03
       N       E                     dE             d eps       ncg     rms          rms(c)
DAV:   1    -0.910215591860E+02   -0.33167E-05   -0.65181E-04  5872   0.850E-02    0.432E-03
DAV:   2    -0.910215629855E+02   -0.37995E-05   -0.38651E-05  4432   0.280E-02
  37 F= -.93976005E+02 E0= -.93979872E+02  d E =-.631568E-03
       N       E                     dE             d eps       ncg     rms          rms(c)
DAV:   1    -0.910215434005E+02    0.15785E-04   -0.36923E-02  5944   0.622E-01    0.238E-02
DAV:   2    -0.910217047357E+02   -0.16134E-03   -0.16720E-03  6640   0.140E-01    0.115E-02
DAV:   3    -0.910217118242E+02   -0.70885E-05   -0.85198E-05  6448   0.437E-02
  38 F= -.93976173E+02 E0= -.93980029E+02  d E =-.167530E-03
       N       E                     dE             d eps       ncg     rms          rms(c)
DAV:   1    -0.910214629456E+02    0.24179E-03   -0.10700E-01  5960   0.106E+00    0.425E-02
DAV:   2    -0.910219572873E+02   -0.49434E-03   -0.49003E-03  6856   0.241E-01    0.600E-02
DAV:   3    -0.910219482560E+02    0.90313E-05   -0.58789E-04  7232   0.946E-02    0.399E-02
DAV:   4    -0.910219305078E+02    0.17748E-04   -0.73943E-05  5208   0.340E-02    0.143E-02
DAV:   5    -0.910219326762E+02   -0.21684E-05   -0.21308E-05  4480   0.226E-02
  39 F= -.93976427E+02 E0= -.93980262E+02  d E =-.422047E-03
       N       E                     dE             d eps       ncg     rms          rms(c)
DAV:   1    -0.910203951730E+02    0.15353E-02   -0.42625E-01  5960   0.211E+00    0.802E-02
DAV:   2    -0.910222508571E+02   -0.18557E-02   -0.19065E-02  6816   0.463E-01    0.628E-02
DAV:   3    -0.910224027992E+02   -0.15194E-03   -0.19399E-03  8064   0.185E-01    0.962E-02
DAV:   4    -0.910222802722E+02    0.12253E-03   -0.51217E-04  6136   0.800E-02    0.282E-02
DAV:   5    -0.910222851198E+02   -0.48476E-05   -0.84055E-05  5736   0.469E-02
  40 F= -.93976855E+02 E0= -.93980642E+02  d E =-.849572E-03
       N       E                     dE             d eps       ncg     rms          rms(c)
DAV:   1    -0.910149278497E+02    0.73524E-02   -0.17033E+00  5952   0.422E+00    0.161E-01
DAV:   2    -0.910223975356E+02   -0.74697E-02   -0.76828E-02  6912   0.922E-01    0.120E-01
DAV:   3    -0.910230318401E+02   -0.63430E-03   -0.74199E-03  8128   0.365E-01    0.193E-01
DAV:   4    -0.910225369474E+02    0.49489E-03   -0.21064E-03  7248   0.160E-01    0.573E-02
DAV:   5    -0.910225593318E+02   -0.22384E-04   -0.34123E-04  6576   0.964E-02    0.472E-02
DAV:   6    -0.910225304641E+02    0.28868E-04   -0.26273E-04  6472   0.902E-02    0.164E-02
DAV:   7    -0.910225331682E+02   -0.27041E-05   -0.55913E-05  5536   0.353E-02
  41 F= -.93977284E+02 E0= -.93980981E+02  d E =-.127867E-02
       N       E                     dE             d eps       ncg     rms          rms(c)
DAV:   1    -0.910222620273E+02    0.26844E-03   -0.15037E-01  6008   0.124E+00    0.484E-02
DAV:   2    -0.910229017267E+02   -0.63970E-03   -0.66635E-03  6928   0.263E-01    0.312E-02
DAV:   3    -0.910229575978E+02   -0.55871E-04   -0.51216E-04  7048   0.806E-02    0.545E-02
DAV:   4    -0.910229228453E+02    0.34752E-04   -0.16230E-04  5504   0.457E-02    0.174E-02
DAV:   5    -0.910229224694E+02    0.37585E-06   -0.19183E-05  4296   0.264E-02
  42 F= -.93977739E+02 E0= -.93981407E+02  d E =-.455322E-03
       N       E                     dE             d eps       ncg     rms          rms(c)
DAV:   1    -0.910196615236E+02    0.32613E-02   -0.83654E-01  5968   0.293E+00    0.115E-01
DAV:   2    -0.910232515827E+02   -0.35901E-02   -0.37331E-02  6904   0.621E-01    0.845E-02
DAV:   3    -0.910235533964E+02   -0.30181E-03   -0.30152E-03  7672   0.180E-01    0.136E-01
DAV:   4    -0.910233524735E+02    0.20092E-03   -0.92095E-04  6400   0.951E-02    0.429E-02
DAV:   5    -0.910233589491E+02   -0.64756E-05   -0.27786E-04  6136   0.897E-02    0.337E-02
DAV:   6    -0.910233407700E+02    0.18179E-04   -0.14544E-04  5304   0.623E-02    0.143E-02
DAV:   7    -0.910233420989E+02   -0.13289E-05   -0.41113E-05  5408   0.241E-02
  43 F= -.93978329E+02 E0= -.93981933E+02  d E =-.104518E-02
       N       E                     dE             d eps       ncg     rms          rms(c)
DAV:   1    -0.910227822384E+02    0.55853E-03   -0.12085E-01  5976   0.111E+00    0.443E-02
DAV:   2    -0.910232977613E+02   -0.51552E-03   -0.53757E-03  6760   0.236E-01    0.306E-02
DAV:   3    -0.910233489685E+02   -0.51207E-04   -0.46803E-04  7224   0.793E-02    0.541E-02
DAV:   4    -0.910233125947E+02    0.36374E-04   -0.14710E-04  5232   0.411E-02    0.150E-02
DAV:   5    -0.910233128174E+02   -0.22275E-06   -0.15425E-05  4272   0.232E-02
  44 F= -.93978370E+02 E0= -.93981946E+02  d E =-.108595E-02
       N       E                     dE             d eps       ncg     rms          rms(c)
DAV:   1    -0.910225185182E+02    0.79408E-03   -0.26910E-01  5928   0.165E+00    0.610E-02
DAV:   2    -0.910236652232E+02   -0.11467E-02   -0.11784E-02  6928   0.347E-01    0.437E-02
DAV:   3    -0.910237494912E+02   -0.84268E-04   -0.82901E-04  7192   0.950E-02    0.708E-02
DAV:   4    -0.910236943700E+02    0.55121E-04   -0.24503E-04  5816   0.493E-02    0.211E-02
DAV:   5    -0.910236973738E+02   -0.30037E-05   -0.79075E-05  4904   0.497E-02
  45 F= -.93978823E+02 E0= -.93982358E+02  d E =-.453544E-03
       N       E                     dE             d eps       ncg     rms          rms(c)
DAV:   1    -0.910138213692E+02    0.98730E-02   -0.24224E+00  5944   0.495E+00    0.182E-01
DAV:   2    -0.910242323587E+02   -0.10411E-01   -0.10720E-01  7040   0.104E+00    0.117E-01
DAV:   3    -0.910250871445E+02   -0.85479E-03   -0.79569E-03  7728   0.348E-01    0.215E-01
DAV:   4    -0.910245072828E+02    0.57986E-03   -0.24065E-03  7600   0.184E-01    0.580E-02
DAV:   5    -0.910245046159E+02    0.26670E-05   -0.19904E-04  6400   0.771E-02    0.280E-02
DAV:   6    -0.910245277115E+02   -0.23096E-04   -0.17641E-04  7072   0.745E-02    0.231E-02
DAV:   7    -0.910245109382E+02    0.16773E-04   -0.85562E-05  5168   0.509E-02    0.769E-03
DAV:   8    -0.910245111049E+02   -0.16672E-06   -0.64771E-06  3448   0.133E-02
  46 F= -.93979882E+02 E0= -.93983298E+02  d E =-.151178E-02
       N       E                     dE             d eps       ncg     rms          rms(c)
DAV:   1    -0.909801289541E+02    0.44382E-01   -0.97133E+00  5936   0.993E+00    0.366E-01
DAV:   2    -0.910231688272E+02   -0.43040E-01   -0.44395E-01  7024   0.213E+00    0.203E-01
DAV:   3    -0.910261686387E+02   -0.29998E-02   -0.28727E-02  7608   0.736E-01    0.365E-01
DAV:   4    -0.910245676798E+02    0.16010E-02   -0.85374E-03  8360   0.346E-01    0.120E-01
DAV:   5    -0.910245597269E+02    0.79529E-05   -0.87553E-04  7504   0.230E-01    0.741E-02
DAV:   6    -0.910246037537E+02   -0.44027E-04   -0.11480E-03  7064   0.201E-01    0.497E-02
DAV:   7    -0.910245284401E+02    0.75314E-04   -0.42920E-04  6704   0.132E-01    0.131E-02
DAV:   8    -0.910245321651E+02   -0.37251E-05   -0.49458E-05  6136   0.356E-02
  47 F= -.93980559E+02 E0= -.93983699E+02  d E =-.218936E-02
       N       E                     dE             d eps       ncg     rms          rms(c)
DAV:   1    -0.910246757155E+02   -0.14728E-03   -0.11968E-01  5712   0.103E+00    0.751E-02
DAV:   2    -0.910250702476E+02   -0.39453E-03   -0.49156E-03  6648   0.241E-01    0.466E-02
DAV:   3    -0.910251020547E+02   -0.31807E-04   -0.62196E-04  7112   0.109E-01    0.445E-02
DAV:   4    -0.910250982886E+02    0.37662E-05   -0.18776E-04  5672   0.622E-02    0.416E-02
DAV:   5    -0.910251063235E+02   -0.80349E-05   -0.16139E-04  5392   0.430E-02    0.361E-02
DAV:   6    -0.910250878045E+02    0.18519E-04   -0.14488E-04  5360   0.566E-02    0.157E-02
DAV:   7    -0.910250850135E+02    0.27910E-05   -0.18512E-05  4568   0.184E-02
  48 F= -.93981094E+02 E0= -.93984214E+02  d E =-.534429E-03
       N       E                     dE             d eps       ncg     rms          rms(c)
DAV:   1    -0.910250838846E+02    0.39198E-05   -0.15394E-04  5976   0.399E-02    0.758E-03
DAV:   2    -0.910250847379E+02   -0.85331E-06   -0.18136E-05  4216   0.150E-02
  49 F= -.93981093E+02 E0= -.93984212E+02  d E =-.533524E-03
       N       E                     dE             d eps       ncg     rms          rms(c)
DAV:   1    -0.910253649034E+02   -0.28102E-03   -0.86686E-02  5984   0.920E-01    0.557E-02
DAV:   2    -0.910256802911E+02   -0.31539E-03   -0.32878E-03  6968   0.219E-01    0.371E-02
DAV:   3    -0.910257282363E+02   -0.47945E-04   -0.38900E-04  7560   0.755E-02    0.580E-02
DAV:   4    -0.910256881816E+02    0.40055E-04   -0.21223E-04  5752   0.503E-02    0.207E-02
DAV:   5    -0.910256882888E+02   -0.10727E-06   -0.19216E-05  4224   0.180E-02
  50 F= -.93981707E+02 E0= -.93984822E+02  d E =-.614528E-03
       N       E                     dE             d eps       ncg     rms          rms(c)
DAV:   1    -0.910239054104E+02    0.17828E-02   -0.67075E-01  6000   0.256E+00    0.154E-01
DAV:   2    -0.910263420814E+02   -0.24367E-02   -0.25568E-02  6928   0.610E-01    0.932E-02
DAV:   3    -0.910264419080E+02   -0.99827E-04   -0.13668E-03  8528   0.154E-01    0.684E-02
DAV:   4    -0.910265083720E+02   -0.66464E-04   -0.71372E-04  6232   0.113E-01    0.895E-02
DAV:   5    -0.910264874582E+02    0.20914E-04   -0.64920E-04  5904   0.660E-02    0.569E-02
DAV:   6    -0.910264172291E+02    0.70229E-04   -0.41070E-04  5840   0.961E-02    0.142E-02
DAV:   7    -0.910264168184E+02    0.41071E-06   -0.22021E-05  4536   0.219E-02
  51 F= -.93982474E+02 E0= -.93985583E+02  d E =-.138148E-02
       N       E                     dE             d eps       ncg     rms          rms(c)
DAV:   1    -0.910260571288E+02    0.36010E-03   -0.16341E-01  5928   0.122E+00    0.691E-02
DAV:   2    -0.910266240798E+02   -0.56695E-03   -0.61506E-03  6656   0.283E-01    0.443E-02
DAV:   3    -0.910266499569E+02   -0.25877E-04   -0.42892E-04  8264   0.844E-02    0.324E-02
DAV:   4    -0.910266710640E+02   -0.21107E-04   -0.13961E-04  5888   0.528E-02    0.479E-02
DAV:   5    -0.910266536581E+02    0.17406E-04   -0.14268E-04  5600   0.320E-02    0.222E-02
DAV:   6    -0.910266496299E+02    0.40282E-05   -0.87170E-05  4408   0.445E-02
  52 F= -.93982669E+02 E0= -.93985756E+02  d E =-.195212E-03
       N       E                     dE             d eps       ncg     rms          rms(c)
DAV:   1    -0.910266377192E+02    0.15939E-04   -0.21464E-02  6000   0.445E-01    0.244E-02
DAV:   2    -0.910267156360E+02   -0.77917E-04   -0.83684E-04  6608   0.106E-01    0.162E-02
DAV:   3    -0.910267182688E+02   -0.26328E-05   -0.53416E-05  6456   0.313E-02
  53 F= -.93982751E+02 E0= -.93985846E+02  d E =-.277149E-03
       N       E                     dE             d eps       ncg     rms          rms(c)
DAV:   1    -0.910269680580E+02   -0.25242E-03   -0.11705E-01  6096   0.982E-01    0.490E-02
DAV:   2    -0.910273625271E+02   -0.39447E-03   -0.37605E-03  6840   0.220E-01    0.694E-02
DAV:   3    -0.910273417498E+02    0.20777E-04   -0.59694E-04  7120   0.837E-02    0.448E-02
DAV:   4    -0.910273201316E+02    0.21618E-04   -0.11587E-04  5152   0.431E-02    0.145E-02
DAV:   5    -0.910273220861E+02   -0.19544E-05   -0.42293E-05  4560   0.384E-02
  54 F= -.93983232E+02 E0= -.93986297E+02  d E =-.480807E-03
       N       E                     dE             d eps       ncg     rms          rms(c)
DAV:   1    -0.910263643707E+02    0.95576E-03   -0.65170E-01  6104   0.231E+00    0.109E-01
DAV:   2    -0.910282740657E+02   -0.19097E-02   -0.19719E-02  7144   0.510E-01    0.547E-02
DAV:   3    -0.910283691532E+02   -0.95088E-04   -0.10130E-03  8104   0.138E-01    0.546E-02
DAV:   4    -0.910283729804E+02   -0.38272E-05   -0.37597E-04  6704   0.813E-02    0.525E-02
DAV:   5    -0.910283575886E+02    0.15392E-04   -0.12674E-04  5632   0.466E-02    0.218E-02
DAV:   6    -0.910283590973E+02   -0.15087E-05   -0.10612E-04  5952   0.569E-02    0.140E-02
DAV:   7    -0.910283534521E+02    0.56452E-05   -0.29819E-05  4176   0.341E-02
  55 F= -.93983983E+02 E0= -.93986989E+02  d E =-.123205E-02
       N       E                     dE             d eps       ncg     rms          rms(c)
DAV:   1    -0.910207243149E+02    0.76348E-02   -0.26071E+00  6096   0.464E+00    0.218E-01
DAV:   2    -0.910285275068E+02   -0.78032E-02   -0.80595E-02  7040   0.103E+00    0.107E-01
DAV:   3    -0.910288606378E+02   -0.33313E-03   -0.39576E-03  8776   0.256E-01    0.850E-02
DAV:   4    -0.910289911946E+02   -0.13056E-03   -0.14180E-03  7272   0.179E-01    0.105E-01
DAV:   5    -0.910288956864E+02    0.95508E-04   -0.99096E-04  7056   0.119E-01    0.690E-02
DAV:   6    -0.910288656312E+02    0.30055E-04   -0.38083E-04  6016   0.909E-02    0.296E-02
DAV:   7    -0.910288516278E+02    0.14003E-04   -0.12137E-04  5832   0.696E-02    0.114E-02
DAV:   8    -0.910288511645E+02    0.46333E-06   -0.14253E-05  4264   0.223E-02
  56 F= -.93983962E+02 E0= -.93986840E+02  d E =-.121036E-02
       N       E                     dE             d eps       ncg     rms          rms(c)
DAV:   1    -0.910261859375E+02    0.26657E-02   -0.86526E-01  6120   0.267E+00    0.126E-01
DAV:   2    -0.910287180815E+02   -0.25321E-02   -0.26186E-02  7040   0.587E-01    0.630E-02
DAV:   3    -0.910288819681E+02   -0.16389E-03   -0.15692E-03  8152   0.200E-01    0.820E-02
DAV:   4    -0.910288316738E+02    0.50294E-04   -0.61074E-04  7704   0.105E-01    0.502E-02
DAV:   5    -0.910288312952E+02    0.37858E-06   -0.10394E-04  5896   0.651E-02    0.238E-02
DAV:   6    -0.910288342731E+02   -0.29779E-05   -0.14183E-04  5768   0.617E-02    0.155E-02
DAV:   7    -0.910288274303E+02    0.68427E-05   -0.43193E-05  4408   0.458E-02
  57 F= -.93984231E+02 E0= -.93987179E+02  d E =-.147945E-02
       N       E                     dE             d eps       ncg     rms          rms(c)
DAV:   1    -0.910283269685E+02    0.50730E-03   -0.38137E-01  5496   0.157E+00    0.115E-01
DAV:   2    -0.910292969459E+02   -0.96998E-03   -0.11236E-02  6944   0.314E-01    0.724E-02
DAV:   3    -0.910293833663E+02   -0.86420E-04   -0.13966E-03  7928   0.169E-01    0.818E-02
DAV:   4    -0.910293230589E+02    0.60307E-04   -0.77518E-04  6488   0.113E-01    0.625E-02
DAV:   5    -0.910293156394E+02    0.74195E-05   -0.25315E-04  5696   0.534E-02    0.444E-02
DAV:   6    -0.910292850552E+02    0.30584E-04   -0.20649E-04  5648   0.791E-02    0.158E-02
DAV:   7    -0.910292833180E+02    0.17372E-05   -0.37290E-05  5440   0.259E-02
  58 F= -.93984295E+02 E0= -.93987223E+02  d E =-.639434E-04
       N       E                     dE             d eps       ncg     rms          rms(c)
DAV:   1    -0.910291556185E+02    0.12944E-03   -0.84676E-02  5480   0.739E-01    0.539E-02
DAV:   2    -0.910293747734E+02   -0.21915E-03   -0.25168E-03  6872   0.149E-01    0.347E-02
DAV:   3    -0.910293899520E+02   -0.15179E-04   -0.28664E-04  7032   0.792E-02    0.374E-02
DAV:   4    -0.910293786198E+02    0.11332E-04   -0.16580E-04  5568   0.541E-02    0.305E-02
DAV:   5    -0.910293768380E+02    0.17817E-05   -0.59253E-05  5128   0.247E-02
  59 F= -.93984572E+02 E0= -.93987514E+02  d E =-.341545E-03
       N       E                     dE             d eps       ncg     rms          rms(c)
DAV:   1    -0.910298017439E+02   -0.42312E-03   -0.12498E-01  5648   0.956E-01    0.599E-02
DAV:   2    -0.910301565752E+02   -0.35483E-03   -0.37367E-03  7152   0.207E-01    0.399E-02
DAV:   3    -0.910301841305E+02   -0.27555E-04   -0.28962E-04  7896   0.618E-02    0.503E-02
DAV:   4    -0.910301630602E+02    0.21070E-04   -0.15697E-04  5456   0.371E-02    0.276E-02
DAV:   5    -0.910301625662E+02    0.49403E-06   -0.69100E-05  5008   0.436E-02
  60 F= -.93985083E+02 E0= -.93988004E+02  d E =-.511099E-03
       N       E                     dE             d eps       ncg     rms          rms(c)
DAV:   1    -0.910297069855E+02    0.45607E-03   -0.55103E-01  5656   0.201E+00    0.129E-01
DAV:   2    -0.910312136261E+02   -0.15066E-02   -0.16071E-02  7232   0.426E-01    0.832E-02
DAV:   3    -0.910313162876E+02   -0.10266E-03   -0.10841E-03  8168   0.120E-01    0.920E-02
DAV:   4    -0.910312786301E+02    0.37657E-04   -0.73689E-04  6416   0.836E-02    0.693E-02
DAV:   5    -0.910312333470E+02    0.45283E-04   -0.22823E-04  5880   0.799E-02    0.170E-02
DAV:   6    -0.910312381987E+02   -0.48516E-05   -0.82464E-05  5600   0.495E-02
  61 F= -.93985589E+02 E0= -.93988493E+02  d E =-.101684E-02
       N       E                     dE             d eps       ncg     rms          rms(c)
DAV:   1    -0.910316124500E+02   -0.37910E-03   -0.10735E-01  6232   0.878E-01    0.704E-02
DAV:   2    -0.910318135324E+02   -0.20108E-03   -0.30316E-03  6928   0.194E-01    0.437E-02
DAV:   3    -0.910318516011E+02   -0.38069E-04   -0.54312E-04  7096   0.784E-02    0.454E-02
DAV:   4    -0.910318497363E+02    0.18649E-05   -0.19634E-04  5936   0.464E-02    0.420E-02
DAV:   5    -0.910318390400E+02    0.10696E-04   -0.13074E-04  5520   0.391E-02    0.233E-02
DAV:   6    -0.910318375527E+02    0.14873E-05   -0.10045E-04  5312   0.473E-02    0.149E-02
DAV:   7    -0.910318337658E+02    0.37869E-05   -0.24937E-05  4176   0.251E-02
  62 F= -.93985901E+02 E0= -.93988809E+02  d E =-.311893E-03
       N       E                     dE             d eps       ncg     rms          rms(c)
DAV:   1    -0.910317898931E+02    0.47660E-04   -0.41059E-03  6336   0.171E-01    0.132E-02
DAV:   2    -0.910317990184E+02   -0.91253E-05   -0.11964E-04  6352   0.399E-02    0.893E-03
DAV:   3    -0.910317995659E+02   -0.54750E-06   -0.17332E-05  3800   0.195E-02
  63 F= -.93985922E+02 E0= -.93988829E+02  d E =-.332970E-03
       N       E                     dE             d eps       ncg     rms          rms(c)
DAV:   1    -0.910321572347E+02   -0.35822E-03   -0.67483E-02  6064   0.691E-01    0.365E-02
DAV:   2    -0.910323422980E+02   -0.18506E-03   -0.18783E-03  6680   0.153E-01    0.323E-02
DAV:   3    -0.910323652482E+02   -0.22950E-04   -0.30349E-04  6968   0.667E-02    0.441E-02
DAV:   4    -0.910323410464E+02    0.24202E-04   -0.90589E-05  5240   0.342E-02    0.122E-02
DAV:   5    -0.910323418366E+02   -0.79018E-06   -0.17979E-05  4032   0.225E-02
  64 F= -.93986181E+02 E0= -.93989095E+02  d E =-.258724E-03
       N       E                     dE             d eps       ncg     rms          rms(c)
DAV:   1    -0.910325880693E+02   -0.24702E-03   -0.14016E-01  6080   0.995E-01    0.521E-02
DAV:   2    -0.910329536651E+02   -0.36560E-03   -0.38211E-03  6688   0.215E-01    0.281E-02
DAV:   3    -0.910329731849E+02   -0.19520E-04   -0.25639E-04  7800   0.687E-02    0.228E-02
DAV:   4    -0.910329744771E+02   -0.12922E-05   -0.67711E-05  5216   0.491E-02
  65 F= -.93986407E+02 E0= -.93989333E+02  d E =-.485174E-03
       N       E                     dE             d eps       ncg     rms          rms(c)
DAV:   1    -0.910333234519E+02   -0.35027E-03   -0.29010E-02  5904   0.458E-01    0.281E-02
DAV:   2    -0.910334094082E+02   -0.85956E-04   -0.91063E-04  6888   0.103E-01    0.207E-02
DAV:   3    -0.910334160399E+02   -0.66317E-05   -0.77112E-05  6016   0.332E-02
  66 F= -.93986651E+02 E0= -.93989585E+02  d E =-.243515E-03
