       N       E                     dE             d eps       ncg     rms          rms(c)
DAV:   1     0.468653894389E+03    0.46865E+03   -0.13690E+04  2000   0.869E+02
DAV:   2     0.366134149716E+02   -0.43204E+03   -0.41312E+03  2192   0.254E+02
DAV:   3    -0.785667234612E+02   -0.11518E+03   -0.11222E+03  3936   0.140E+02
DAV:   4    -0.888628317315E+02   -0.10296E+02   -0.10193E+02  3344   0.496E+01
DAV:   5    -0.892200674020E+02   -0.35724E+00   -0.35621E+00  3368   0.110E+01    0.338E+01
RMM:   6    -0.801477886218E+02    0.90723E+01   -0.19135E+01  2177   0.298E+01    0.130E+01
RMM:   7    -0.816921574153E+02   -0.15444E+01   -0.26599E+01  2673   0.179E+01    0.644E+00
RMM:   8    -0.804755451148E+02    0.12166E+01   -0.43793E+00  2621   0.977E+00    0.545E+00
RMM:   9    -0.797477695866E+02    0.72778E+00   -0.10262E+00  2134   0.804E+00    0.381E+00
RMM:  10    -0.796937467785E+02    0.54023E-01   -0.11785E+00  2604   0.348E+00    0.103E+00
RMM:  11    -0.796889567259E+02    0.47901E-02   -0.25937E-01  2775   0.215E+00    0.499E-01
RMM:  12    -0.796856624420E+02    0.32943E-02   -0.35149E-02  2590   0.841E-01    0.362E-01
RMM:  13    -0.796851783927E+02    0.48405E-03   -0.22506E-02  2787   0.555E-01    0.171E-01
RMM:  14    -0.796851850305E+02   -0.66378E-05   -0.84185E-03  2792   0.354E-01    0.879E-02
RMM:  15    -0.796859575949E+02   -0.77256E-03   -0.48342E-03  2928   0.204E-01    0.636E-02
RMM:  16    -0.796861467487E+02   -0.18915E-03   -0.36955E-03  2710   0.155E-01    0.426E-02
RMM:  17    -0.796870060218E+02   -0.85927E-03   -0.21669E-03  2721   0.132E-01    0.227E-02
RMM:  18    -0.796875323941E+02   -0.52637E-03   -0.89198E-04  2514   0.799E-02    0.199E-02
RMM:  19    -0.796884569560E+02   -0.92456E-03   -0.46776E-04  2245   0.566E-02    0.141E-02
RMM:  20    -0.796889649501E+02   -0.50799E-03   -0.27924E-04  1914   0.478E-02    0.111E-02
RMM:  21    -0.796892662806E+02   -0.30133E-03   -0.15280E-04  1782   0.489E-02    0.698E-03
RMM:  22    -0.796893113521E+02   -0.45071E-04   -0.81050E-05  1565   0.256E-02    0.296E-03
RMM:  23    -0.796893678502E+02   -0.56498E-04   -0.38557E-05  1492   0.201E-02    0.474E-03
RMM:  24    -0.796893888278E+02   -0.20978E-04   -0.26344E-05  1463   0.204E-02    0.288E-03
RMM:  25    -0.796893980333E+02   -0.92054E-05   -0.14947E-05  1435   0.133E-02
   1 F= -.82853299E+02 E0= -.82845672E+02  d E =-.828533E+02
       N       E                     dE             d eps       ncg     rms          rms(c)
DAV:   1    -0.581187740496E+02    0.21571E+02   -0.16745E+03  2344   0.145E+02    0.249E+01
RMM:   2    -0.731306202117E+02   -0.15012E+02   -0.21097E+02  2927   0.680E+01    0.123E+01
RMM:   3    -0.808275092845E+02   -0.76969E+01   -0.73221E+01  2898   0.282E+01    0.128E+01
RMM:   4    -0.809795012900E+02   -0.15199E+00   -0.22184E+01  2824   0.169E+01    0.129E+01
RMM:   5    -0.779771840608E+02    0.30023E+01   -0.11717E+01  2636   0.111E+01    0.807E+00
RMM:   6    -0.805144607408E+02   -0.25373E+01   -0.40517E+01  3120   0.162E+01    0.119E+01
RMM:   7    -0.782106980880E+02    0.23038E+01   -0.52336E+00  2579   0.817E+00    0.656E+00
RMM:   8    -0.777324694181E+02    0.47823E+00   -0.63740E+00  2713   0.764E+00    0.177E+00
RMM:   9    -0.777856744437E+02   -0.53205E-01   -0.94979E-01  2532   0.418E+00    0.114E+00
RMM:  10    -0.778220824088E+02   -0.36408E-01   -0.24835E-01  2764   0.188E+00    0.159E+00
RMM:  11    -0.777777574546E+02    0.44325E-01   -0.38766E-02  2629   0.761E-01    0.129E+00
RMM:  12    -0.777522301679E+02    0.25527E-01   -0.93113E-01  3091   0.234E+00    0.104E+00
RMM:  13    -0.777282783436E+02    0.23952E-01   -0.60688E-02  2583   0.894E-01    0.582E-01
RMM:  14    -0.777241259111E+02    0.41524E-02   -0.65287E-02  2777   0.623E-01    0.968E-02
RMM:  15    -0.777276785014E+02   -0.35526E-02   -0.27280E-02  2749   0.463E-01    0.312E-01
RMM:  16    -0.777274443692E+02    0.23413E-03   -0.42434E-02  2828   0.517E-01    0.278E-01
RMM:  17    -0.777264470905E+02    0.99728E-03   -0.17768E-03  2629   0.193E-01    0.203E-01
RMM:  18    -0.777267010815E+02   -0.25399E-03   -0.18000E-02  2903   0.333E-01    0.156E-01
RMM:  19    -0.777267508142E+02   -0.49733E-04   -0.75789E-04  2553   0.123E-01    0.171E-01
RMM:  20    -0.777261476593E+02    0.60315E-03   -0.31770E-03  2625   0.152E-01    0.236E-02
RMM:  21    -0.777263552580E+02   -0.20760E-03   -0.15279E-03  2667   0.117E-01    0.695E-02
RMM:  22    -0.777262427009E+02    0.11256E-03   -0.34714E-04  2015   0.694E-02    0.260E-02
RMM:  23    -0.777262350668E+02    0.76341E-05   -0.21612E-04  1960   0.545E-02    0.639E-03
RMM:  24    -0.777262381840E+02   -0.31172E-05   -0.36191E-05  1508   0.367E-02
   2 F= -.80987712E+02 E0= -.80977686E+02  d E =0.186559E+01
       N       E                     dE             d eps       ncg     rms          rms(c)
DAV:   1    -0.680525745805E+02    0.96737E+01   -0.10304E+03  2312   0.140E+02    0.243E+01
RMM:   2    -0.844347854359E+02   -0.16382E+02   -0.20213E+02  2678   0.580E+01    0.872E+00
RMM:   3    -0.876867615189E+02   -0.32520E+01   -0.30667E+01  2500   0.229E+01    0.111E+01
RMM:   4    -0.856145468842E+02    0.20722E+01   -0.51463E+00  2528   0.119E+01    0.107E+01
RMM:   5    -0.838758691698E+02    0.17387E+01   -0.25441E+00  2324   0.708E+00    0.573E+00
RMM:   6    -0.836321810830E+02    0.24369E+00   -0.28987E+00  2681   0.541E+00    0.214E+00
RMM:   7    -0.836076399572E+02    0.24541E-01   -0.16192E-01  2354   0.236E+00    0.181E+00
RMM:   8    -0.836157583771E+02   -0.81184E-02   -0.32871E-01  2630   0.215E+00    0.143E+00
RMM:   9    -0.835568303057E+02    0.58928E-01   -0.14895E-01  2493   0.168E+00    0.399E-01
RMM:  10    -0.835604094560E+02   -0.35792E-02   -0.10196E-01  2718   0.953E-01    0.569E-01
RMM:  11    -0.835556358008E+02    0.47737E-02   -0.22711E-02  2560   0.580E-01    0.188E-01
RMM:  12    -0.835573994117E+02   -0.17636E-02   -0.18974E-02  2826   0.392E-01    0.423E-01
RMM:  13    -0.835560747747E+02    0.13246E-02   -0.42705E-03  2578   0.212E-01    0.133E-01
RMM:  14    -0.835572741133E+02   -0.11993E-02   -0.14196E-02  2743   0.304E-01    0.242E-01
RMM:  15    -0.835573618611E+02   -0.87748E-04   -0.49100E-04  2468   0.984E-02    0.170E-01
RMM:  16    -0.835579865527E+02   -0.62469E-03   -0.35109E-03  2721   0.167E-01    0.407E-02
RMM:  17    -0.835586638653E+02   -0.67731E-03   -0.60502E-04  2475   0.813E-02    0.101E-01
RMM:  18    -0.835589668606E+02   -0.30300E-03   -0.28793E-04  1977   0.654E-02    0.413E-02
RMM:  19    -0.835592062171E+02   -0.23936E-03   -0.52914E-04  2334   0.703E-02    0.194E-02
RMM:  20    -0.835592760217E+02   -0.69805E-04   -0.24357E-05  1409   0.282E-02    0.183E-02
RMM:  21    -0.835593255933E+02   -0.49572E-04   -0.82498E-06  1266   0.223E-02    0.138E-02
RMM:  22    -0.835593459281E+02   -0.20335E-04   -0.26168E-05  1412   0.180E-02    0.179E-03
RMM:  23    -0.835593512382E+02   -0.53101E-05   -0.47456E-06  1202   0.183E-02
   3 F= -.86756395E+02 E0= -.86750609E+02  d E =-.390310E+01
       N       E                     dE             d eps       ncg     rms          rms(c)
DAV:   1    -0.836097189287E+02   -0.50373E-01   -0.22284E+00  2400   0.533E+00    0.264E-01
RMM:   2    -0.836107665585E+02   -0.10476E-02   -0.27154E-02  2630   0.879E-01    0.181E-01
RMM:   3    -0.836108421691E+02   -0.75611E-04   -0.50598E-03  2659   0.324E-01    0.151E-01
RMM:   4    -0.836099638917E+02    0.87828E-03   -0.18790E-03  2478   0.201E-01    0.604E-02
RMM:   5    -0.836099232276E+02    0.40664E-04   -0.67689E-04  2530   0.113E-01    0.284E-02
RMM:   6    -0.836099088526E+02    0.14375E-04   -0.91836E-05  1925   0.537E-02    0.189E-02
RMM:   7    -0.836099031834E+02    0.56692E-05   -0.55458E-05  1753   0.351E-02
   4 F= -.86804829E+02 E0= -.86799040E+02  d E =-.395153E+01
       N       E                     dE             d eps       ncg     rms          rms(c)
DAV:   1    -0.831263542869E+02    0.48355E+00   -0.17416E+02  2032   0.478E+01    0.528E+00
RMM:   2    -0.836802917028E+02   -0.55394E+00   -0.74352E+00  2709   0.122E+01    0.278E+00
RMM:   3    -0.837761936891E+02   -0.95902E-01   -0.89247E-01  2637   0.425E+00    0.244E+00
RMM:   4    -0.836157503364E+02    0.16044E+00   -0.21182E-01  2397   0.265E+00    0.169E+00
RMM:   5    -0.835819008742E+02    0.33849E-01   -0.38208E-01  2717   0.225E+00    0.582E-01
RMM:   6    -0.835709220104E+02    0.10979E-01   -0.28813E-02  2170   0.110E+00    0.367E-01
RMM:   7    -0.835687120892E+02    0.22099E-02   -0.35661E-02  2851   0.627E-01    0.109E-01
RMM:   8    -0.835688118627E+02   -0.99774E-04   -0.67710E-03  2762   0.324E-01    0.948E-02
RMM:   9    -0.835687208910E+02    0.90972E-04   -0.11119E-03  2626   0.141E-01    0.646E-02
RMM:  10    -0.835687137552E+02    0.71359E-05   -0.98240E-04  2611   0.952E-02    0.207E-02
RMM:  11    -0.835688351148E+02   -0.12136E-03   -0.27197E-04  2235   0.562E-02    0.289E-02
RMM:  12    -0.835691122823E+02   -0.27717E-03   -0.17526E-04  2128   0.485E-02    0.954E-03
RMM:  13    -0.835692995307E+02   -0.18725E-03   -0.15299E-04  2022   0.450E-02    0.179E-02
RMM:  14    -0.835695552451E+02   -0.25571E-03   -0.11266E-04  1806   0.396E-02    0.648E-03
RMM:  15    -0.835696283329E+02   -0.73088E-04   -0.28086E-05  1451   0.248E-02    0.427E-03
RMM:  16    -0.835697146942E+02   -0.86361E-04   -0.21206E-05  1412   0.189E-02    0.211E-03
RMM:  17    -0.835697300337E+02   -0.15339E-04   -0.63557E-06  1292   0.161E-02    0.151E-03
RMM:  18    -0.835697392085E+02   -0.91748E-05   -0.30602E-06  1225   0.104E-02
   5 F= -.86747420E+02 E0= -.86742078E+02  d E =-.389412E+01
       N       E                     dE             d eps       ncg     rms          rms(c)
DAV:   1    -0.835520845116E+02    0.17646E-01   -0.90657E+01  2000   0.330E+01    0.324E+00
RMM:   2    -0.837554150878E+02   -0.20333E+00   -0.26677E+00  2643   0.787E+00    0.227E+00
RMM:   3    -0.837644719768E+02   -0.90569E-02   -0.29233E-01  2734   0.230E+00    0.149E+00
RMM:   4    -0.837702515930E+02   -0.57796E-02   -0.14118E-01  2471   0.178E+00    0.118E+00
RMM:   5    -0.837179273944E+02    0.52324E-01   -0.58367E-02  2445   0.121E+00    0.318E-01
RMM:   6    -0.837185458232E+02   -0.61843E-03   -0.14761E-02  2769   0.403E-01    0.170E-01
RMM:   7    -0.837187559823E+02   -0.21016E-03   -0.36237E-03  2591   0.220E-01    0.850E-02
RMM:   8    -0.837192360530E+02   -0.48007E-03   -0.19393E-03  2634   0.177E-01    0.611E-02
RMM:   9    -0.837193432369E+02   -0.10718E-03   -0.32766E-04  2426   0.700E-02    0.357E-02
RMM:  10    -0.837196142100E+02   -0.27097E-03   -0.60144E-04  2409   0.806E-02    0.252E-02
RMM:  11    -0.837197497233E+02   -0.13551E-03   -0.64246E-05  1765   0.383E-02    0.215E-02
RMM:  12    -0.837199110589E+02   -0.16134E-03   -0.17918E-04  1739   0.475E-02    0.131E-02
RMM:  13    -0.837201543129E+02   -0.24325E-03   -0.12458E-04  1805   0.429E-02    0.544E-03
RMM:  14    -0.837202181389E+02   -0.63826E-04   -0.38506E-05  1534   0.268E-02    0.388E-03
RMM:  15    -0.837202520077E+02   -0.33869E-04   -0.18913E-05  1397   0.213E-02    0.174E-03
RMM:  16    -0.837202662443E+02   -0.14237E-04   -0.10700E-05  1319   0.172E-02    0.118E-03
RMM:  17    -0.837202698606E+02   -0.36163E-05   -0.47049E-06  1269   0.134E-02
   6 F= -.86909673E+02 E0= -.86903878E+02  d E =-.405637E+01
       N       E                     dE             d eps       ncg     rms          rms(c)
DAV:   1    -0.837321731888E+02   -0.11907E-01   -0.25609E+01  2000   0.176E+01    0.165E+00
RMM:   2    -0.837584036949E+02   -0.26231E-01   -0.46748E-01  2547   0.385E+00    0.842E-01
RMM:   3    -0.837804695946E+02   -0.22066E-01   -0.13812E-01  2664   0.168E+00    0.778E-01
RMM:   4    -0.837517431906E+02    0.28726E-01   -0.27110E-02  2369   0.928E-01    0.364E-01
RMM:   5    -0.837503987160E+02    0.13445E-02   -0.18338E-02  2732   0.564E-01    0.963E-02
RMM:   6    -0.837502340147E+02    0.16470E-03   -0.27354E-03  2439   0.274E-01    0.580E-02
RMM:   7    -0.837502151294E+02    0.18885E-04   -0.83925E-04  2652   0.122E-01    0.370E-02
RMM:   8    -0.837502001192E+02    0.15010E-04   -0.39361E-04  2591   0.710E-02    0.189E-02
RMM:   9    -0.837502136064E+02   -0.13487E-04   -0.99068E-05  2022   0.433E-02    0.137E-02
RMM:  10    -0.837502403744E+02   -0.26768E-04   -0.49869E-05  1784   0.329E-02    0.717E-03
RMM:  11    -0.837503029969E+02   -0.62622E-04   -0.81374E-05  1672   0.354E-02    0.128E-02
RMM:  12    -0.837503450808E+02   -0.42084E-04   -0.26350E-05  1484   0.256E-02    0.342E-03
RMM:  13    -0.837504118400E+02   -0.66759E-04   -0.40253E-05  1610   0.269E-02    0.856E-03
RMM:  14    -0.837504318834E+02   -0.20043E-04   -0.10897E-05  1342   0.236E-02    0.393E-03
RMM:  15    -0.837504545538E+02   -0.22670E-04   -0.90703E-06  1314   0.150E-02    0.159E-03
RMM:  16    -0.837504755119E+02   -0.20958E-04   -0.82332E-06  1272   0.157E-02    0.225E-03
RMM:  17    -0.837504853173E+02   -0.98054E-05   -0.37548E-06  1159   0.120E-02
   7 F= -.86933463E+02 E0= -.86927867E+02  d E =-.408016E+01
       N       E                     dE             d eps       ncg     rms          rms(c)
DAV:   1    -0.837555136014E+02   -0.50381E-02   -0.47216E+00  2080   0.764E+00    0.567E-01
RMM:   2    -0.837585135754E+02   -0.30000E-02   -0.69454E-02  2538   0.173E+00    0.493E-01
RMM:   3    -0.837603387909E+02   -0.18252E-02   -0.26828E-02  2751   0.636E-01    0.330E-01
RMM:   4    -0.837596994597E+02    0.63933E-03   -0.70230E-03  2502   0.410E-01    0.158E-01
RMM:   5    -0.837582572364E+02    0.14422E-02   -0.10493E-03  2225   0.217E-01    0.630E-02
RMM:   6    -0.837583142911E+02   -0.57055E-04   -0.72863E-04  2510   0.869E-02    0.221E-02
RMM:   7    -0.837583392013E+02   -0.24910E-04   -0.10548E-04  1971   0.526E-02    0.135E-02
RMM:   8    -0.837583861237E+02   -0.46922E-04   -0.33756E-05  1560   0.319E-02    0.730E-03
RMM:   9    -0.837584181956E+02   -0.32072E-04   -0.17704E-05  1369   0.303E-02    0.378E-03
RMM:  10    -0.837584403780E+02   -0.22182E-04   -0.89907E-06  1284   0.192E-02    0.289E-03
RMM:  11    -0.837584742960E+02   -0.33918E-04   -0.89999E-06  1295   0.179E-02    0.226E-03
RMM:  12    -0.837585060451E+02   -0.31749E-04   -0.10514E-05  1318   0.154E-02    0.181E-03
RMM:  13    -0.837585207049E+02   -0.14660E-04   -0.70965E-06  1288   0.158E-02    0.154E-03
RMM:  14    -0.837585341082E+02   -0.13403E-04   -0.81124E-06  1298   0.132E-02    0.194E-03
RMM:  15    -0.837585395628E+02   -0.54546E-05   -0.48058E-06  1250   0.124E-02
   8 F= -.86944196E+02 E0= -.86938484E+02  d E =-.409090E+01
       N       E                     dE             d eps       ncg     rms          rms(c)
DAV:   1    -0.839464414012E+02   -0.18791E+00   -0.21143E+01  2056   0.140E+01    0.252E+00
RMM:   2    -0.838873466339E+02    0.59095E-01   -0.98873E-01  2633   0.554E+00    0.151E+00
RMM:   3    -0.839613409425E+02   -0.73994E-01   -0.65247E-01  2643   0.295E+00    0.121E+00
RMM:   4    -0.838914077047E+02    0.69933E-01   -0.11296E-01  2381   0.178E+00    0.734E-01
RMM:   5    -0.838833830501E+02    0.80247E-02   -0.40128E-02  2628   0.835E-01    0.514E-01
RMM:   6    -0.838895972974E+02   -0.62142E-02   -0.86648E-02  2729   0.967E-01    0.476E-01
RMM:   7    -0.838831327789E+02    0.64645E-02   -0.17837E-02  2298   0.470E-01    0.186E-01
RMM:   8    -0.838832680425E+02   -0.13526E-03   -0.14926E-02  2892   0.328E-01    0.844E-02
RMM:   9    -0.838832245381E+02    0.43504E-04   -0.75205E-04  2391   0.121E-01    0.610E-02
RMM:  10    -0.838832040598E+02    0.20478E-04   -0.34158E-04  2096   0.631E-02    0.337E-02
RMM:  11    -0.838832637798E+02   -0.59720E-04   -0.35196E-05  1585   0.361E-02    0.286E-02
RMM:  12    -0.838832851461E+02   -0.21366E-04   -0.21380E-04  1863   0.496E-02    0.525E-03
RMM:  13    -0.838833216614E+02   -0.36515E-04   -0.48340E-05  1547   0.398E-02    0.141E-02
RMM:  14    -0.838833414514E+02   -0.19790E-04   -0.12328E-05  1334   0.296E-02    0.937E-03
RMM:  15    -0.838833839782E+02   -0.42527E-04   -0.91852E-05  1744   0.257E-02    0.122E-02
RMM:  16    -0.838833891700E+02   -0.51918E-05   -0.49228E-06  1275   0.171E-02
   9 F= -.87076385E+02 E0= -.87070011E+02  d E =-.132189E+00
       N       E                     dE             d eps       ncg     rms          rms(c)
DAV:   1    -0.840758602446E+02   -0.19248E+00   -0.45903E+00  2000   0.721E+00    0.966E-01
RMM:   2    -0.840773723595E+02   -0.15121E-02   -0.22313E-01  2667   0.274E+00    0.645E-01
RMM:   3    -0.840824738509E+02   -0.51015E-02   -0.10435E-01  2623   0.119E+00    0.403E-01
RMM:   4    -0.840775538350E+02    0.49200E-02   -0.20565E-02  2454   0.729E-01    0.307E-01
RMM:   5    -0.840749780527E+02    0.25758E-02   -0.42655E-03  2451   0.333E-01    0.207E-01
RMM:   6    -0.840749173183E+02    0.60734E-04   -0.87388E-03  2638   0.305E-01    0.125E-01
RMM:   7    -0.840747977339E+02    0.11958E-03   -0.82339E-04  2428   0.135E-01    0.536E-02
RMM:   8    -0.840747585446E+02    0.39189E-04   -0.58140E-04  2282   0.853E-02    0.154E-02
RMM:   9    -0.840747701184E+02   -0.11574E-04   -0.69051E-05  1597   0.399E-02    0.190E-02
RMM:  10    -0.840747709585E+02   -0.84004E-06   -0.13319E-05  1334   0.301E-02
  10 F= -.87263966E+02 E0= -.87257903E+02  d E =-.319770E+00
       N       E                     dE             d eps       ncg     rms          rms(c)
DAV:   1    -0.841611337011E+02   -0.86364E-01   -0.13205E+00  2000   0.439E+00    0.433E-01
RMM:   2    -0.841676701834E+02   -0.65365E-02   -0.80173E-02  2387   0.208E+00    0.369E-01
RMM:   3    -0.841672108473E+02    0.45934E-03   -0.23984E-02  2687   0.728E-01    0.228E-01
RMM:   4    -0.841664473128E+02    0.76353E-03   -0.28739E-03  2569   0.279E-01    0.151E-01
RMM:   5    -0.841661881637E+02    0.25915E-03   -0.89812E-04  2391   0.178E-01    0.734E-02
RMM:   6    -0.841661025062E+02    0.85658E-04   -0.45690E-04  2390   0.122E-01    0.201E-02
RMM:   7    -0.841661037078E+02   -0.12016E-05   -0.15585E-04  2040   0.494E-02    0.981E-03
RMM:   8    -0.841661061498E+02   -0.24420E-05   -0.34079E-05  1590   0.301E-02
  11 F= -.87357043E+02 E0= -.87350451E+02  d E =-.930760E-01
       N       E                     dE             d eps       ncg     rms          rms(c)
DAV:   1    -0.842279589896E+02   -0.61855E-01   -0.83294E+00  2000   0.111E+01    0.111E+00
RMM:   2    -0.842717625064E+02   -0.43804E-01   -0.52583E-01  2390   0.534E+00    0.917E-01
RMM:   3    -0.842703664439E+02    0.13961E-02   -0.16344E-01  2693   0.190E+00    0.561E-01
RMM:   4    -0.842651985264E+02    0.51679E-02   -0.19629E-02  2591   0.705E-01    0.375E-01
RMM:   5    -0.842635951914E+02    0.16033E-02   -0.56490E-03  2419   0.448E-01    0.186E-01
RMM:   6    -0.842630941636E+02    0.50103E-03   -0.27406E-03  2493   0.298E-01    0.505E-02
RMM:   7    -0.842631023490E+02   -0.81854E-05   -0.10377E-03  2562   0.113E-01    0.226E-02
RMM:   8    -0.842630982563E+02    0.40927E-05   -0.27092E-04  2335   0.651E-02    0.113E-02
RMM:   9    -0.842631155062E+02   -0.17250E-04   -0.91904E-05  2001   0.348E-02    0.687E-03
RMM:  10    -0.842631379740E+02   -0.22468E-04   -0.26304E-05  1464   0.327E-02    0.457E-03
RMM:  11    -0.842631852877E+02   -0.47314E-04   -0.18870E-05  1391   0.220E-02    0.323E-03
RMM:  12    -0.842632182174E+02   -0.32930E-04   -0.10709E-05  1308   0.222E-02    0.247E-03
RMM:  13    -0.842632609619E+02   -0.42744E-04   -0.14139E-05  1373   0.164E-02    0.240E-03
RMM:  14    -0.842632815252E+02   -0.20563E-04   -0.72865E-06  1280   0.165E-02    0.129E-03
RMM:  15    -0.842632886532E+02   -0.71280E-05   -0.36251E-06  1248   0.123E-02
  12 F= -.87459539E+02 E0= -.87451852E+02  d E =-.195572E+00
       N       E                     dE             d eps       ncg     rms          rms(c)
DAV:   1    -0.843144422479E+02   -0.51161E-01   -0.67561E+00  2192   0.888E+00    0.731E-01
RMM:   2    -0.843332464518E+02   -0.18804E-01   -0.20852E-01  2579   0.257E+00    0.496E-01
RMM:   3    -0.843356695835E+02   -0.24231E-02   -0.29888E-02  2653   0.808E-01    0.258E-01
RMM:   4    -0.843359591536E+02   -0.28957E-03   -0.57750E-03  2390   0.422E-01    0.125E-01
RMM:   5    -0.843356197487E+02    0.33940E-03   -0.13345E-03  2260   0.248E-01    0.362E-02
RMM:   6    -0.843356731219E+02   -0.53373E-04   -0.60694E-04  2468   0.883E-02    0.282E-02
RMM:   7    -0.843356509749E+02    0.22147E-04   -0.17118E-04  2093   0.578E-02    0.134E-02
RMM:   8    -0.843356515092E+02   -0.53431E-06   -0.38923E-05  1593   0.313E-02
  13 F= -.87538668E+02 E0= -.87530702E+02  d E =-.791290E-01
       N       E                     dE             d eps       ncg     rms          rms(c)
DAV:   1    -0.843326799582E+02    0.29710E-02   -0.82855E+00  2000   0.979E+00    0.770E-01
RMM:   2    -0.843555724223E+02   -0.22892E-01   -0.25328E-01  2570   0.281E+00    0.517E-01
RMM:   3    -0.843584210963E+02   -0.28487E-02   -0.35762E-02  2672   0.879E-01    0.283E-01
RMM:   4    -0.843587887616E+02   -0.36767E-03   -0.72310E-03  2401   0.455E-01    0.144E-01
RMM:   5    -0.843583722950E+02    0.41647E-03   -0.16099E-03  2231   0.279E-01    0.417E-02
RMM:   6    -0.843584535099E+02   -0.81215E-04   -0.91292E-04  2516   0.101E-01    0.310E-02
RMM:   7    -0.843584248191E+02    0.28691E-04   -0.15762E-04  2094   0.601E-02    0.161E-02
RMM:   8    -0.843584262097E+02   -0.13906E-05   -0.53112E-05  1602   0.388E-02
  14 F= -.87569011E+02 E0= -.87560730E+02  d E =-.109472E+00
       N       E                     dE             d eps       ncg     rms          rms(c)
DAV:   1    -0.843923124644E+02   -0.33888E-01   -0.70693E-01  2400   0.267E+00    0.296E-01
RMM:   2    -0.843937796335E+02   -0.14672E-02   -0.22626E-02  2484   0.868E-01    0.163E-01
RMM:   3    -0.843943047145E+02   -0.52508E-03   -0.63951E-03  2649   0.306E-01    0.763E-02
RMM:   4    -0.843943277817E+02   -0.23067E-04   -0.70888E-04  2373   0.143E-01    0.554E-02
RMM:   5    -0.843943435648E+02   -0.15783E-04   -0.18537E-04  2150   0.811E-02    0.367E-02
RMM:   6    -0.843943103918E+02    0.33173E-04   -0.14380E-04  1966   0.624E-02    0.157E-02
RMM:   7    -0.843943106233E+02   -0.23145E-06   -0.24308E-05  1395   0.373E-02
  15 F= -.87607463E+02 E0= -.87599209E+02  d E =-.384528E-01
       N       E                     dE             d eps       ncg     rms          rms(c)
DAV:   1    -0.844245449036E+02   -0.30235E-01   -0.62351E+00  2000   0.792E+00    0.891E-01
RMM:   2    -0.844347985744E+02   -0.10254E-01   -0.18897E-01  2474   0.259E+00    0.489E-01
RMM:   3    -0.844396184378E+02   -0.48199E-02   -0.61974E-02  2664   0.935E-01    0.238E-01
RMM:   4    -0.844399398151E+02   -0.32138E-03   -0.71744E-03  2403   0.452E-01    0.183E-01
RMM:   5    -0.844399999140E+02   -0.60099E-04   -0.19073E-03  2532   0.245E-01    0.130E-01
RMM:   6    -0.844397262897E+02    0.27362E-03   -0.19922E-03  2578   0.197E-01    0.618E-02
RMM:   7    -0.844396257478E+02    0.10054E-03   -0.23533E-04  2209   0.820E-02    0.343E-02
RMM:   8    -0.844396194064E+02    0.63413E-05   -0.27649E-04  2069   0.593E-02    0.105E-02
RMM:   9    -0.844396436760E+02   -0.24270E-04   -0.73754E-05  1653   0.427E-02    0.154E-02
RMM:  10    -0.844396625017E+02   -0.18826E-04   -0.18976E-05  1436   0.283E-02    0.796E-03
RMM:  11    -0.844396991041E+02   -0.36602E-04   -0.69204E-05  1593   0.276E-02    0.107E-02
RMM:  12    -0.844397304905E+02   -0.31386E-04   -0.11506E-05  1316   0.202E-02    0.617E-03
RMM:  13    -0.844397614084E+02   -0.30918E-04   -0.12887E-05  1341   0.172E-02    0.359E-03
RMM:  14    -0.844397836848E+02   -0.22276E-04   -0.15242E-05  1398   0.187E-02    0.341E-03
RMM:  15    -0.844397911282E+02   -0.74434E-05   -0.52196E-06  1251   0.158E-02
  16 F= -.87660338E+02 E0= -.87652148E+02  d E =-.913271E-01
       N       E                     dE             d eps       ncg     rms          rms(c)
DAV:   1    -0.844597022973E+02   -0.19919E-01   -0.40387E-01  2344   0.221E+00    0.180E-01
RMM:   2    -0.844610531061E+02   -0.13508E-02   -0.14580E-02  2618   0.705E-01    0.976E-02
RMM:   3    -0.844613942302E+02   -0.34112E-03   -0.21739E-03  2581   0.216E-01    0.736E-02
RMM:   4    -0.844612664369E+02    0.12779E-03   -0.39389E-04  2358   0.111E-01    0.466E-02
RMM:   5    -0.844612447094E+02    0.21727E-04   -0.14865E-04  2071   0.721E-02    0.158E-02
RMM:   6    -0.844612398514E+02    0.48581E-05   -0.41370E-05  1552   0.444E-02
  17 F= -.87680701E+02 E0= -.87672726E+02  d E =-.203639E-01
       N       E                     dE             d eps       ncg     rms          rms(c)
DAV:   1    -0.844904986207E+02   -0.29254E-01   -0.36150E+00  2000   0.659E+00    0.549E-01
RMM:   2    -0.845026565162E+02   -0.12158E-01   -0.13224E-01  2521   0.220E+00    0.295E-01
RMM:   3    -0.845061451960E+02   -0.34887E-02   -0.24699E-02  2668   0.699E-01    0.222E-01
RMM:   4    -0.845051930018E+02    0.95219E-03   -0.44412E-03  2563   0.328E-01    0.149E-01
RMM:   5    -0.845049034547E+02    0.28955E-03   -0.13561E-03  2513   0.196E-01    0.463E-02
RMM:   6    -0.845048692492E+02    0.34206E-04   -0.33479E-04  2269   0.110E-01    0.177E-02
RMM:   7    -0.845048755628E+02   -0.63136E-05   -0.11868E-04  1949   0.425E-02    0.116E-02
RMM:   8    -0.845048839041E+02   -0.83413E-05   -0.39567E-05  1605   0.363E-02
  18 F= -.87720890E+02 E0= -.87713610E+02  d E =-.605527E-01
       N       E                     dE             d eps       ncg     rms          rms(c)
DAV:   1    -0.844354407694E+02    0.69435E-01   -0.14226E+01  2000   0.130E+01    0.112E+00
RMM:   2    -0.844829010907E+02   -0.47460E-01   -0.52701E-01  2474   0.452E+00    0.599E-01
RMM:   3    -0.844981835046E+02   -0.15282E-01   -0.11920E-01  2654   0.151E+00    0.451E-01
RMM:   4    -0.844954127983E+02    0.27707E-02   -0.23791E-02  2610   0.719E-01    0.321E-01
RMM:   5    -0.844940783714E+02    0.13344E-02   -0.52975E-03  2512   0.385E-01    0.106E-01
RMM:   6    -0.844940453134E+02    0.33058E-04   -0.14269E-03  2417   0.221E-01    0.417E-02
RMM:   7    -0.844940461509E+02   -0.83753E-06   -0.50422E-04  2461   0.936E-02    0.238E-02
RMM:   8    -0.844940554256E+02   -0.92747E-05   -0.18107E-04  2129   0.548E-02    0.142E-02
RMM:   9    -0.844940874665E+02   -0.32041E-04   -0.67783E-05  1766   0.379E-02    0.870E-03
RMM:  10    -0.844941344892E+02   -0.47023E-04   -0.24554E-05  1475   0.357E-02    0.622E-03
RMM:  11    -0.844942402508E+02   -0.10576E-03   -0.47081E-05  1628   0.258E-02    0.631E-03
RMM:  12    -0.844942610377E+02   -0.20787E-04   -0.12299E-05  1328   0.263E-02    0.461E-03
RMM:  13    -0.844943117878E+02   -0.50750E-04   -0.24419E-05  1465   0.189E-02    0.508E-03
RMM:  14    -0.844943348991E+02   -0.23111E-04   -0.99849E-06  1302   0.221E-02    0.326E-03
RMM:  15    -0.844943406490E+02   -0.57499E-05   -0.45969E-06  1230   0.121E-02
  19 F= -.87702646E+02 E0= -.87696866E+02  d E =-.423087E-01
       N       E                     dE             d eps       ncg     rms          rms(c)
DAV:   1    -0.844956298214E+02   -0.12949E-02   -0.60352E+00  2000   0.852E+00    0.723E-01
RMM:   2    -0.845139927783E+02   -0.18363E-01   -0.20339E-01  2651   0.254E+00    0.382E-01
RMM:   3    -0.845181234042E+02   -0.41306E-02   -0.28633E-02  2665   0.783E-01    0.270E-01
RMM:   4    -0.845168488909E+02    0.12745E-02   -0.60876E-03  2588   0.398E-01    0.190E-01
RMM:   5    -0.845162708989E+02    0.57799E-03   -0.20501E-03  2409   0.264E-01    0.827E-02
RMM:   6    -0.845162474586E+02    0.23440E-04   -0.58116E-04  2285   0.155E-01    0.239E-02
RMM:   7    -0.845163107278E+02   -0.63269E-04   -0.24313E-04  2230   0.582E-02    0.150E-02
RMM:   8    -0.845163869879E+02   -0.76260E-04   -0.89014E-05  1843   0.472E-02    0.856E-03
RMM:   9    -0.845164339202E+02   -0.46932E-04   -0.25431E-05  1463   0.254E-02    0.680E-03
RMM:  10    -0.845165031309E+02   -0.69211E-04   -0.18561E-05  1374   0.241E-02    0.327E-03
RMM:  11    -0.845165891057E+02   -0.85975E-04   -0.39644E-05  1523   0.220E-02    0.441E-03
RMM:  12    -0.845166118661E+02   -0.22760E-04   -0.11809E-05  1334   0.236E-02    0.362E-03
RMM:  13    -0.845166691550E+02   -0.57289E-04   -0.53477E-05  1633   0.194E-02    0.723E-03
RMM:  14    -0.845166728707E+02   -0.37158E-05   -0.71189E-06  1284   0.216E-02
  20 F= -.87730062E+02 E0= -.87723307E+02  d E =-.697248E-01
       N       E                     dE             d eps       ncg     rms          rms(c)
DAV:   1    -0.845251954181E+02   -0.85263E-02   -0.66170E+00  2000   0.886E+00    0.552E-01
RMM:   2    -0.845393058227E+02   -0.14110E-01   -0.18286E-01  2665   0.234E+00    0.356E-01
RMM:   3    -0.845408942041E+02   -0.15884E-02   -0.28258E-02  2515   0.691E-01    0.213E-01
RMM:   4    -0.845417248725E+02   -0.83067E-03   -0.69543E-03  2626   0.383E-01    0.181E-01
RMM:   5    -0.845403866916E+02    0.13382E-02   -0.15369E-03  2296   0.234E-01    0.686E-02
RMM:   6    -0.845404260211E+02   -0.39329E-04   -0.70375E-04  2510   0.129E-01    0.220E-02
RMM:   7    -0.845404396262E+02   -0.13605E-04   -0.13695E-04  2003   0.517E-02    0.109E-02
RMM:   8    -0.845404384017E+02    0.12245E-05   -0.22359E-05  1457   0.355E-02
  21 F= -.87749141E+02 E0= -.87742792E+02  d E =-.190789E-01
       N       E                     dE             d eps       ncg     rms          rms(c)
DAV:   1    -0.845401037989E+02    0.33583E-03   -0.17419E-01  2368   0.142E+00    0.914E-02
RMM:   2    -0.845403989492E+02   -0.29515E-03   -0.44730E-03  2678   0.369E-01    0.584E-02
RMM:   3    -0.845404615924E+02   -0.62643E-04   -0.87309E-04  2168   0.115E-01    0.362E-02
RMM:   4    -0.845404728374E+02   -0.11245E-04   -0.17062E-04  1999   0.694E-02    0.308E-02
RMM:   5    -0.845404439194E+02    0.28918E-04   -0.31863E-05  1531   0.427E-02    0.159E-02
RMM:   6    -0.845404491421E+02   -0.52228E-05   -0.44594E-05  1458   0.339E-02
  22 F= -.87749916E+02 E0= -.87743500E+02  d E =-.198537E-01
       N       E                     dE             d eps       ncg     rms          rms(c)
DAV:   1    -0.845565587874E+02   -0.16115E-01   -0.65666E+00  2000   0.878E+00    0.477E-01
RMM:   2    -0.845700542452E+02   -0.13495E-01   -0.16355E-01  2629   0.220E+00    0.307E-01
RMM:   3    -0.845718250082E+02   -0.17708E-02   -0.24391E-02  2561   0.659E-01    0.197E-01
RMM:   4    -0.845722231435E+02   -0.39814E-03   -0.49576E-03  2601   0.333E-01    0.161E-01
RMM:   5    -0.845714107241E+02    0.81242E-03   -0.12131E-03  2302   0.205E-01    0.519E-02
RMM:   6    -0.845714512689E+02   -0.40545E-04   -0.45648E-04  2401   0.106E-01    0.169E-02
RMM:   7    -0.845714609770E+02   -0.97081E-05   -0.91891E-05  1817   0.479E-02
  23 F= -.87775520E+02 E0= -.87769440E+02  d E =-.256036E-01
       N       E                     dE             d eps       ncg     rms          rms(c)
DAV:   1    -0.845661680168E+02    0.52833E-02   -0.90658E+00  2000   0.102E+01    0.558E-01
RMM:   2    -0.845847086453E+02   -0.18541E-01   -0.22342E-01  2577   0.256E+00    0.360E-01
RMM:   3    -0.845871719638E+02   -0.24633E-02   -0.33359E-02  2600   0.776E-01    0.237E-01
RMM:   4    -0.845877588793E+02   -0.58692E-03   -0.73295E-03  2602   0.393E-01    0.196E-01
RMM:   5    -0.845865981188E+02    0.11608E-02   -0.19081E-03  2301   0.247E-01    0.583E-02
RMM:   6    -0.845866670328E+02   -0.68914E-04   -0.62489E-04  2495   0.119E-01    0.221E-02
RMM:   7    -0.845866772579E+02   -0.10225E-04   -0.12048E-04  1970   0.574E-02    0.111E-02
RMM:   8    -0.845866816271E+02   -0.43693E-05   -0.30119E-05  1525   0.353E-02
  24 F= -.87784412E+02 E0= -.87778706E+02  d E =-.344958E-01
       N       E                     dE             d eps       ncg     rms          rms(c)
DAV:   1    -0.846003894156E+02   -0.13712E-01   -0.17099E+00  2048   0.445E+00    0.270E-01
RMM:   2    -0.846036751113E+02   -0.32857E-02   -0.41945E-02  2546   0.115E+00    0.163E-01
RMM:   3    -0.846044549355E+02   -0.77982E-03   -0.77151E-03  2657   0.371E-01    0.113E-01
RMM:   4    -0.846043938966E+02    0.61039E-04   -0.14913E-03  2499   0.183E-01    0.819E-02
RMM:   5    -0.846042977260E+02    0.96171E-04   -0.33421E-04  2215   0.105E-01    0.300E-02
RMM:   6    -0.846043072736E+02   -0.95476E-05   -0.88330E-05  1826   0.600E-02
  25 F= -.87798796E+02 E0= -.87793242E+02  d E =-.143837E-01
       N       E                     dE             d eps       ncg     rms          rms(c)
DAV:   1    -0.846077505711E+02   -0.34528E-02   -0.53548E+00  2000   0.783E+00    0.482E-01
RMM:   2    -0.846179658492E+02   -0.10215E-01   -0.13046E-01  2476   0.202E+00    0.289E-01
RMM:   3    -0.846205315839E+02   -0.25657E-02   -0.25561E-02  2688   0.669E-01    0.205E-01
RMM:   4    -0.846202817189E+02    0.24987E-03   -0.49323E-03  2565   0.317E-01    0.155E-01
RMM:   5    -0.846199345278E+02    0.34719E-03   -0.93557E-04  2310   0.182E-01    0.612E-02
RMM:   6    -0.846199764899E+02   -0.41962E-04   -0.34739E-04  2251   0.113E-01    0.226E-02
RMM:   7    -0.846199819815E+02   -0.54915E-05   -0.11352E-04  1911   0.567E-02    0.996E-03
RMM:   8    -0.846199850353E+02   -0.30538E-05   -0.21555E-05  1449   0.301E-02
  26 F= -.87808780E+02 E0= -.87803469E+02  d E =-.243682E-01
       N       E                     dE             d eps       ncg     rms          rms(c)
DAV:   1    -0.846239720338E+02   -0.39901E-02   -0.16737E-02  2640   0.487E-01    0.442E-02
RMM:   2    -0.846239878054E+02   -0.15772E-04   -0.52970E-04  2371   0.170E-01    0.276E-02
RMM:   3    -0.846240009068E+02   -0.13101E-04   -0.20372E-04  2135   0.644E-02    0.145E-02
RMM:   4    -0.846240001041E+02    0.80275E-06   -0.29360E-05  1454   0.430E-02
  27 F= -.87812439E+02 E0= -.87807060E+02  d E =-.365854E-02
       N       E                     dE             d eps       ncg     rms          rms(c)
DAV:   1    -0.846328852809E+02   -0.88844E-02   -0.15081E-01  2000   0.146E+00    0.132E-01
RMM:   2    -0.846330378710E+02   -0.15259E-03   -0.48767E-03  2399   0.501E-01    0.786E-02
RMM:   3    -0.846331466103E+02   -0.10874E-03   -0.18905E-03  2643   0.181E-01    0.410E-02
RMM:   4    -0.846331364996E+02    0.10111E-04   -0.26609E-04  2351   0.788E-02    0.287E-02
RMM:   5    -0.846331356310E+02    0.86861E-06   -0.55566E-05  1735   0.488E-02
  28 F= -.87820513E+02 E0= -.87814935E+02  d E =-.117334E-01
       N       E                     dE             d eps       ncg     rms          rms(c)
DAV:   1    -0.846375317009E+02   -0.43952E-02   -0.60342E-01  2000   0.292E+00    0.267E-01
RMM:   2    -0.846380060678E+02   -0.47437E-03   -0.19019E-02  2335   0.103E+00    0.164E-01
RMM:   3    -0.846386335537E+02   -0.62749E-03   -0.84859E-03  2696   0.386E-01    0.102E-01
RMM:   4    -0.846386107762E+02    0.22778E-04   -0.14876E-03  2514   0.188E-01    0.773E-02
RMM:   5    -0.846384294995E+02    0.18128E-03   -0.38584E-04  2353   0.920E-02    0.506E-02
RMM:   6    -0.846384036622E+02    0.25837E-04   -0.26679E-04  2130   0.905E-02    0.237E-02
RMM:   7    -0.846383951761E+02    0.84860E-05   -0.57781E-05  1808   0.348E-02
  29 F= -.87823692E+02 E0= -.87817703E+02  d E =-.149121E-01
       N       E                     dE             d eps       ncg     rms          rms(c)
DAV:   1    -0.846385262869E+02   -0.12262E-03   -0.56204E-02  2288   0.894E-01    0.826E-02
RMM:   2    -0.846385812953E+02   -0.55008E-04   -0.17689E-03  2466   0.291E-01    0.441E-02
RMM:   3    -0.846386211804E+02   -0.39885E-04   -0.66556E-04  2410   0.106E-01    0.231E-02
RMM:   4    -0.846386289105E+02   -0.77301E-05   -0.10257E-04  1863   0.643E-02    0.186E-02
RMM:   5    -0.846386271474E+02    0.17631E-05   -0.19271E-05  1389   0.286E-02
  30 F= -.87824552E+02 E0= -.87818688E+02  d E =-.157717E-01
       N       E                     dE             d eps       ncg     rms          rms(c)
DAV:   1    -0.846410734797E+02   -0.24446E-02   -0.85840E-03  2392   0.340E-01    0.257E-02
RMM:   2    -0.846411049496E+02   -0.31470E-04   -0.36107E-04  2443   0.124E-01    0.157E-02
RMM:   3    -0.846411123130E+02   -0.73635E-05   -0.66717E-05  1656   0.403E-02
  31 F= -.87826745E+02 E0= -.87820829E+02  d E =-.219319E-02
       N       E                     dE             d eps       ncg     rms          rms(c)
DAV:   1    -0.846472957234E+02   -0.61908E-02   -0.77939E-02  2000   0.102E+00    0.803E-02
RMM:   2    -0.846475518363E+02   -0.25611E-03   -0.31730E-03  2367   0.373E-01    0.500E-02
RMM:   3    -0.846476316238E+02   -0.79787E-04   -0.82219E-04  2527   0.128E-01    0.352E-02
RMM:   4    -0.846476193403E+02    0.12283E-04   -0.13101E-04  2055   0.643E-02    0.262E-02
RMM:   5    -0.846476059852E+02    0.13355E-04   -0.37588E-05  1617   0.435E-02    0.158E-02
RMM:   6    -0.846476049280E+02    0.10572E-05   -0.19542E-05  1379   0.341E-02
  32 F= -.87832367E+02 E0= -.87826315E+02  d E =-.781479E-02
       N       E                     dE             d eps       ncg     rms          rms(c)
DAV:   1    -0.846551543290E+02   -0.75483E-02   -0.31022E-01  2000   0.203E+00    0.157E-01
RMM:   2    -0.846561518583E+02   -0.99753E-03   -0.12214E-02  2329   0.766E-01    0.957E-02
RMM:   3    -0.846564206009E+02   -0.26874E-03   -0.32346E-03  2696   0.254E-01    0.586E-02
RMM:   4    -0.846564038481E+02    0.16753E-04   -0.41859E-04  2438   0.948E-02    0.393E-02
RMM:   5    -0.846564092494E+02   -0.54012E-05   -0.11785E-04  2028   0.700E-02    0.220E-02
RMM:   6    -0.846563948439E+02    0.14406E-04   -0.53030E-05  1704   0.439E-02    0.123E-02
RMM:   7    -0.846563917775E+02    0.30664E-05   -0.12570E-05  1275   0.318E-02
  33 F= -.87839434E+02 E0= -.87833113E+02  d E =-.148819E-01
       N       E                     dE             d eps       ncg     rms          rms(c)
DAV:   1    -0.846521089070E+02    0.42859E-02   -0.12425E+00  2000   0.406E+00    0.314E-01
RMM:   2    -0.846561829961E+02   -0.40741E-02   -0.49118E-02  2339   0.150E+00    0.188E-01
RMM:   3    -0.846572231817E+02   -0.10402E-02   -0.12683E-02  2717   0.496E-01    0.116E-01
RMM:   4    -0.846571607961E+02    0.62386E-04   -0.16469E-03  2525   0.181E-01    0.778E-02
RMM:   5    -0.846571194460E+02    0.41350E-04   -0.41634E-04  2257   0.136E-01    0.322E-02
RMM:   6    -0.846571550272E+02   -0.35581E-04   -0.23894E-04  2278   0.653E-02    0.250E-02
RMM:   7    -0.846571176610E+02    0.37366E-04   -0.56258E-05  1720   0.531E-02    0.882E-03
RMM:   8    -0.846571190584E+02   -0.13973E-05   -0.15400E-05  1325   0.252E-02
  34 F= -.87836811E+02 E0= -.87829991E+02  d E =-.122589E-01
       N       E                     dE             d eps       ncg     rms          rms(c)
DAV:   1    -0.846574605158E+02   -0.34285E-03   -0.46930E-01  2000   0.250E+00    0.193E-01
RMM:   2    -0.846589973140E+02   -0.15368E-02   -0.18413E-02  2344   0.920E-01    0.114E-01
RMM:   3    -0.846593665195E+02   -0.36921E-03   -0.44960E-03  2686   0.298E-01    0.690E-02
RMM:   4    -0.846593701362E+02   -0.36167E-05   -0.60867E-04  2481   0.117E-01    0.472E-02
RMM:   5    -0.846593956384E+02   -0.25502E-04   -0.18352E-04  2202   0.797E-02    0.306E-02
RMM:   6    -0.846593592684E+02    0.36370E-04   -0.63299E-05  1736   0.519E-02    0.139E-02
RMM:   7    -0.846593615719E+02   -0.23035E-05   -0.21136E-05  1382   0.348E-02
  35 F= -.87841100E+02 E0= -.87834580E+02  d E =-.165478E-01
       N       E                     dE             d eps       ncg     rms          rms(c)
DAV:   1    -0.846644743967E+02   -0.51151E-02   -0.15579E-01  2176   0.136E+00    0.964E-02
RMM:   2    -0.846647720314E+02   -0.29763E-03   -0.46097E-03  2394   0.429E-01    0.613E-02
RMM:   3    -0.846648540757E+02   -0.82044E-04   -0.12583E-03  2532   0.144E-01    0.387E-02
RMM:   4    -0.846648732337E+02   -0.19158E-04   -0.18204E-04  2092   0.726E-02    0.321E-02
RMM:   5    -0.846648524471E+02    0.20787E-04   -0.46023E-05  1638   0.433E-02    0.224E-02
RMM:   6    -0.846648490060E+02    0.34411E-05   -0.37160E-05  1508   0.423E-02
  36 F= -.87845526E+02 E0= -.87838916E+02  d E =-.442632E-02
       N       E                     dE             d eps       ncg     rms          rms(c)
DAV:   1    -0.846689442555E+02   -0.40918E-02   -0.64842E-01  2000   0.276E+00    0.202E-01
RMM:   2    -0.846700481471E+02   -0.11039E-02   -0.18274E-02  2366   0.871E-01    0.129E-01
RMM:   3    -0.846704200766E+02   -0.37193E-03   -0.56066E-03  2689   0.301E-01    0.789E-02
RMM:   4    -0.846704798711E+02   -0.59794E-04   -0.81879E-04  2511   0.133E-01    0.626E-02
RMM:   5    -0.846704178760E+02    0.61995E-04   -0.24445E-04  2182   0.810E-02    0.469E-02
RMM:   6    -0.846703922917E+02    0.25584E-04   -0.16195E-04  1928   0.763E-02    0.223E-02
RMM:   7    -0.846703951390E+02   -0.28473E-05   -0.48435E-05  1694   0.345E-02
  37 F= -.87848925E+02 E0= -.87842145E+02  d E =-.782578E-02
       N       E                     dE             d eps       ncg     rms          rms(c)
DAV:   1    -0.846742747521E+02   -0.38825E-02   -0.85565E-02  2048   0.103E+00    0.650E-02
RMM:   2    -0.846745115775E+02   -0.23683E-03   -0.27904E-03  2422   0.328E-01    0.392E-02
RMM:   3    -0.846745544566E+02   -0.42879E-04   -0.49137E-04  2407   0.106E-01    0.265E-02
RMM:   4    -0.846745530340E+02    0.14226E-05   -0.49130E-05  1586   0.496E-02
  38 F= -.87851942E+02 E0= -.87845152E+02  d E =-.301683E-02
       N       E                     dE             d eps       ncg     rms          rms(c)
DAV:   1    -0.846836728616E+02   -0.91184E-02   -0.76695E-01  2000   0.307E+00    0.194E-01
RMM:   2    -0.846857388812E+02   -0.20660E-02   -0.24185E-02  2416   0.967E-01    0.121E-01
RMM:   3    -0.846861655971E+02   -0.42672E-03   -0.43512E-03  2713   0.304E-01    0.876E-02
RMM:   4    -0.846860924096E+02    0.73188E-04   -0.48396E-04  2430   0.122E-01    0.632E-02
RMM:   5    -0.846860615053E+02    0.30904E-04   -0.25824E-04  2238   0.860E-02    0.335E-02
RMM:   6    -0.846860526345E+02    0.88708E-05   -0.94700E-05  1816   0.699E-02
  39 F= -.87860033E+02 E0= -.87853199E+02  d E =-.111079E-01
       N       E                     dE             d eps       ncg     rms          rms(c)
DAV:   1    -0.846950133297E+02   -0.89518E-02   -0.30730E+00  2000   0.614E+00    0.381E-01
RMM:   2    -0.847035003552E+02   -0.84870E-02   -0.98809E-02  2419   0.197E+00    0.233E-01
RMM:   3    -0.847049400627E+02   -0.14397E-02   -0.16961E-02  2701   0.619E-01    0.157E-01
RMM:   4    -0.847050416181E+02   -0.10156E-03   -0.19134E-03  2575   0.228E-01    0.118E-01
RMM:   5    -0.847048760254E+02    0.16559E-03   -0.11923E-03  2555   0.165E-01    0.708E-02
RMM:   6    -0.847047744653E+02    0.10156E-03   -0.36062E-04  2194   0.124E-01    0.193E-02
RMM:   7    -0.847047927235E+02   -0.18258E-04   -0.15014E-04  2040   0.470E-02    0.107E-02
RMM:   8    -0.847047931545E+02   -0.43107E-06   -0.18947E-05  1386   0.386E-02
  40 F= -.87872022E+02 E0= -.87865157E+02  d E =-.230971E-01
       N       E                     dE             d eps       ncg     rms          rms(c)
DAV:   1    -0.846864088388E+02    0.18384E-01   -0.12333E+01  2000   0.123E+01    0.754E-01
RMM:   2    -0.847207450312E+02   -0.34336E-01   -0.39710E-01  2411   0.389E+00    0.461E-01
RMM:   3    -0.847264855060E+02   -0.57405E-02   -0.68190E-02  2705   0.123E+00    0.309E-01
RMM:   4    -0.847269098596E+02   -0.42435E-03   -0.69730E-03  2568   0.439E-01    0.235E-01
RMM:   5    -0.847261143032E+02    0.79556E-03   -0.48540E-03  2601   0.335E-01    0.144E-01
RMM:   6    -0.847256540239E+02    0.46028E-03   -0.13945E-03  2252   0.243E-01    0.398E-02
RMM:   7    -0.847257212386E+02   -0.67215E-04   -0.60031E-04  2482   0.901E-02    0.202E-02
RMM:   8    -0.847257203661E+02    0.87249E-06   -0.69610E-05  1821   0.587E-02
  41 F= -.87879705E+02 E0= -.87872918E+02  d E =-.307792E-01
       N       E                     dE             d eps       ncg     rms          rms(c)
DAV:   1    -0.847327711275E+02   -0.70499E-02   -0.91810E-01  2000   0.346E+00    0.338E-01
RMM:   2    -0.847339577813E+02   -0.11867E-02   -0.31289E-02  2450   0.119E+00    0.199E-01
RMM:   3    -0.847350671356E+02   -0.11094E-02   -0.94878E-03  2694   0.440E-01    0.156E-01
RMM:   4    -0.847342764505E+02    0.79069E-03   -0.30984E-03  2572   0.245E-01    0.814E-02
RMM:   5    -0.847341223937E+02    0.15406E-03   -0.53522E-04  2511   0.115E-01    0.482E-02
RMM:   6    -0.847340945994E+02    0.27794E-04   -0.19367E-04  2151   0.829E-02    0.201E-02
RMM:   7    -0.847340961897E+02   -0.15903E-05   -0.66382E-05  1772   0.382E-02
  42 F= -.87882023E+02 E0= -.87875401E+02  d E =-.231878E-02
       N       E                     dE             d eps       ncg     rms          rms(c)
DAV:   1    -0.847333907148E+02    0.70388E-03   -0.15265E-01  2000   0.141E+00    0.136E-01
RMM:   2    -0.847336162982E+02   -0.22558E-03   -0.52670E-03  2488   0.488E-01    0.808E-02
RMM:   3    -0.847337876030E+02   -0.17130E-03   -0.15946E-03  2672   0.182E-01    0.608E-02
RMM:   4    -0.847336805228E+02    0.10708E-03   -0.47666E-04  2408   0.101E-01    0.325E-02
RMM:   5    -0.847336582378E+02    0.22285E-04   -0.79849E-05  1854   0.524E-02    0.198E-02
RMM:   6    -0.847336577018E+02    0.53603E-06   -0.32529E-05  1489   0.381E-02
  43 F= -.87884051E+02 E0= -.87877361E+02  d E =-.434591E-02
       N       E                     dE             d eps       ncg     rms          rms(c)
DAV:   1    -0.847417127567E+02   -0.80545E-02   -0.91232E-01  2000   0.352E+00    0.277E-01
RMM:   2    -0.847439393342E+02   -0.22266E-02   -0.30576E-02  2431   0.115E+00    0.170E-01
RMM:   3    -0.847446988405E+02   -0.75951E-03   -0.74246E-03  2688   0.407E-01    0.145E-01
RMM:   4    -0.847439846862E+02    0.71415E-03   -0.18355E-03  2572   0.195E-01    0.733E-02
RMM:   5    -0.847439044107E+02    0.80275E-04   -0.51251E-04  2579   0.104E-01    0.294E-02
RMM:   6    -0.847438861240E+02    0.18287E-04   -0.12220E-04  1994   0.668E-02    0.137E-02
RMM:   7    -0.847438860735E+02    0.50471E-07   -0.47476E-05  1634   0.389E-02
  44 F= -.87888499E+02 E0= -.87881974E+02  d E =-.444875E-02
       N       E                     dE             d eps       ncg     rms          rms(c)
DAV:   1    -0.847428681704E+02    0.10180E-02   -0.47645E-02  2096   0.807E-01    0.622E-02
RMM:   2    -0.847430036273E+02   -0.13546E-03   -0.16603E-03  2522   0.257E-01    0.393E-02
RMM:   3    -0.847430431670E+02   -0.39540E-04   -0.34047E-04  2318   0.885E-02    0.335E-02
RMM:   4    -0.847430074451E+02    0.35722E-04   -0.70871E-05  1779   0.504E-02    0.151E-02
RMM:   5    -0.847430135606E+02   -0.61155E-05   -0.24089E-05  1392   0.358E-02
  45 F= -.87888951E+02 E0= -.87882392E+02  d E =-.490028E-02
       N       E                     dE             d eps       ncg     rms          rms(c)
DAV:   1    -0.847487555960E+02   -0.57482E-02   -0.88076E-01  2000   0.339E+00    0.254E-01
RMM:   2    -0.847505447290E+02   -0.17891E-02   -0.27908E-02  2469   0.104E+00    0.154E-01
RMM:   3    -0.847511676867E+02   -0.62296E-03   -0.59769E-03  2695   0.356E-01    0.124E-01
RMM:   4    -0.847506786525E+02    0.48903E-03   -0.15301E-03  2550   0.174E-01    0.731E-02
RMM:   5    -0.847506035557E+02    0.75097E-04   -0.28161E-04  2348   0.941E-02    0.409E-02
RMM:   6    -0.847505958909E+02    0.76648E-05   -0.13408E-04  1957   0.731E-02    0.173E-02
RMM:   7    -0.847505960510E+02   -0.16005E-06   -0.51857E-05  1626   0.381E-02
  46 F= -.87892114E+02 E0= -.87885668E+02  d E =-.316364E-02
       N       E                     dE             d eps       ncg     rms          rms(c)
DAV:   1    -0.847498568600E+02    0.73903E-03   -0.35036E-02  2272   0.676E-01    0.513E-02
RMM:   2    -0.847499304740E+02   -0.73614E-04   -0.11021E-03  2559   0.201E-01    0.310E-02
RMM:   3    -0.847499597638E+02   -0.29290E-04   -0.23065E-04  2126   0.708E-02    0.258E-02
RMM:   4    -0.847499368740E+02    0.22890E-04   -0.50526E-05  1600   0.454E-02    0.146E-02
RMM:   5    -0.847499391096E+02   -0.22355E-05   -0.11202E-05  1270   0.265E-02
  47 F= -.87892338E+02 E0= -.87885870E+02  d E =-.338728E-02
       N       E                     dE             d eps       ncg     rms          rms(c)
DAV:   1    -0.847515646504E+02   -0.16278E-02   -0.12548E-01  2000   0.121E+00    0.713E-02
RMM:   2    -0.847518815162E+02   -0.31687E-03   -0.36110E-03  2568   0.346E-01    0.412E-02
RMM:   3    -0.847519222545E+02   -0.40738E-04   -0.49052E-04  2228   0.969E-02    0.262E-02
RMM:   4    -0.847519373327E+02   -0.15078E-04   -0.88166E-05  1807   0.546E-02    0.219E-02
RMM:   5    -0.847519229540E+02    0.14379E-04   -0.26313E-05  1458   0.384E-02    0.945E-03
RMM:   6    -0.847519243889E+02   -0.14349E-05   -0.12587E-05  1307   0.295E-02
  48 F= -.87893767E+02 E0= -.87887311E+02  d E =-.142884E-02
       N       E                     dE             d eps       ncg     rms          rms(c)
DAV:   1    -0.847528616348E+02   -0.93868E-03   -0.11248E+00  2000   0.361E+00    0.217E-01
RMM:   2    -0.847556994940E+02   -0.28379E-02   -0.32533E-02  2509   0.106E+00    0.125E-01
RMM:   3    -0.847561268145E+02   -0.42732E-03   -0.50752E-03  2664   0.308E-01    0.768E-02
RMM:   4    -0.847562834411E+02   -0.15663E-03   -0.91282E-04  2508   0.144E-01    0.638E-02
RMM:   5    -0.847561752221E+02    0.10822E-03   -0.28138E-04  2260   0.902E-02    0.301E-02
RMM:   6    -0.847561506662E+02    0.24556E-04   -0.88906E-05  1786   0.664E-02    0.973E-03
RMM:   7    -0.847561577316E+02   -0.70655E-05   -0.46262E-05  1645   0.335E-02
  49 F= -.87896339E+02 E0= -.87889923E+02  d E =-.400119E-02
       N       E                     dE             d eps       ncg     rms          rms(c)
DAV:   1    -0.847435655543E+02    0.12585E-01   -0.45198E+00  2000   0.719E+00    0.432E-01
RMM:   2    -0.847553019926E+02   -0.11736E-01   -0.13258E-01  2508   0.213E+00    0.250E-01
RMM:   3    -0.847570416600E+02   -0.17397E-02   -0.20917E-02  2684   0.626E-01    0.154E-01
RMM:   4    -0.847576145483E+02   -0.57289E-03   -0.36763E-03  2526   0.287E-01    0.131E-01
RMM:   5    -0.847571588699E+02    0.45568E-03   -0.11519E-03  2461   0.184E-01    0.594E-02
RMM:   6    -0.847570595411E+02    0.99329E-04   -0.33541E-04  2206   0.121E-01    0.186E-02
RMM:   7    -0.847570849479E+02   -0.25407E-04   -0.17782E-04  1974   0.434E-02    0.128E-02
RMM:   8    -0.847570855493E+02   -0.60135E-06   -0.34670E-05  1582   0.591E-02
  50 F= -.87893984E+02 E0= -.87887660E+02  d E =-.164567E-02
       N       E                     dE             d eps       ncg     rms          rms(c)
DAV:   1    -0.847507801537E+02    0.63048E-02   -0.23996E+00  2000   0.522E+00    0.325E-01
RMM:   2    -0.847565350483E+02   -0.57549E-02   -0.66561E-02  2537   0.151E+00    0.182E-01
RMM:   3    -0.847573996712E+02   -0.86462E-03   -0.10690E-02  2685   0.428E-01    0.116E-01
RMM:   4    -0.847575973980E+02   -0.19773E-03   -0.17433E-03  2504   0.198E-01    0.923E-02
RMM:   5    -0.847574469105E+02    0.15049E-03   -0.66780E-04  2472   0.133E-01    0.503E-02
RMM:   6    -0.847573972291E+02    0.49681E-04   -0.28102E-04  2171   0.975E-02    0.209E-02
RMM:   7    -0.847573993114E+02   -0.20823E-05   -0.74023E-05  1783   0.377E-02
  51 F= -.87896686E+02 E0= -.87890292E+02  d E =-.434806E-02
       N       E                     dE             d eps       ncg     rms          rms(c)
DAV:   1    -0.847569217395E+02    0.47549E-03   -0.26657E-01  2000   0.167E+00    0.145E-01
RMM:   2    -0.847574306706E+02   -0.50893E-03   -0.77550E-03  2665   0.481E-01    0.848E-02
RMM:   3    -0.847575923965E+02   -0.16173E-03   -0.18902E-03  2488   0.161E-01    0.496E-02
RMM:   4    -0.847575873208E+02    0.50757E-05   -0.32508E-04  2216   0.932E-02    0.383E-02
RMM:   5    -0.847575393442E+02    0.47977E-04   -0.54841E-05  1690   0.536E-02    0.179E-02
RMM:   6    -0.847575416752E+02   -0.23310E-05   -0.33188E-05  1503   0.381E-02
  52 F= -.87896241E+02 E0= -.87889862E+02  d E =0.445026E-03
       N       E                     dE             d eps       ncg     rms          rms(c)
DAV:   1    -0.847578560988E+02   -0.31675E-03   -0.93440E-02  2080   0.991E-01    0.853E-02
RMM:   2    -0.847580388692E+02   -0.18277E-03   -0.26867E-03  2660   0.280E-01    0.497E-02
RMM:   3    -0.847580852974E+02   -0.46428E-04   -0.62887E-04  2068   0.890E-02    0.249E-02
RMM:   4    -0.847580986168E+02   -0.13319E-04   -0.97434E-05  1834   0.540E-02    0.216E-02
RMM:   5    -0.847580786955E+02    0.19921E-04   -0.18964E-05  1413   0.369E-02    0.887E-03
RMM:   6    -0.847580797749E+02   -0.10795E-05   -0.85788E-06  1261   0.222E-02
  53 F= -.87897127E+02 E0= -.87890739E+02  d E =-.440564E-03
       N       E                     dE             d eps       ncg     rms          rms(c)
DAV:   1    -0.847590810247E+02   -0.10023E-02   -0.15129E-01  2000   0.123E+00    0.104E-01
RMM:   2    -0.847594473950E+02   -0.36637E-03   -0.44239E-03  2632   0.357E-01    0.617E-02
RMM:   3    -0.847595570043E+02   -0.10961E-03   -0.84066E-04  2259   0.123E-01    0.392E-02
RMM:   4    -0.847595544741E+02    0.25303E-05   -0.13524E-04  1926   0.672E-02    0.291E-02
RMM:   5    -0.847595359081E+02    0.18566E-04   -0.35363E-05  1560   0.488E-02    0.132E-02
RMM:   6    -0.847595349481E+02    0.95996E-06   -0.14585E-05  1330   0.332E-02
  54 F= -.87898173E+02 E0= -.87891789E+02  d E =-.104672E-02
       N       E                     dE             d eps       ncg     rms          rms(c)
DAV:   1    -0.847597380878E+02   -0.20218E-03   -0.30736E-02  2400   0.557E-01    0.475E-02
RMM:   2    -0.847598157188E+02   -0.77631E-04   -0.93049E-04  2339   0.173E-01    0.281E-02
RMM:   3    -0.847598422290E+02   -0.26510E-04   -0.20586E-04  1739   0.618E-02    0.183E-02
RMM:   4    -0.847598411404E+02    0.10886E-05   -0.33027E-05  1474   0.458E-02
  55 F= -.87898293E+02 E0= -.87891906E+02  d E =-.116617E-02
       N       E                     dE             d eps       ncg     rms          rms(c)
DAV:   1    -0.847604170533E+02   -0.57482E-03   -0.27169E-02  2216   0.534E-01    0.393E-02
RMM:   2    -0.847604870970E+02   -0.70044E-04   -0.77690E-04  2354   0.153E-01    0.253E-02
RMM:   3    -0.847605150934E+02   -0.27996E-04   -0.21958E-04  1519   0.609E-02    0.174E-02
RMM:   4    -0.847605131215E+02    0.19719E-05   -0.28175E-05  1415   0.434E-02
  56 F= -.87898794E+02 E0= -.87892410E+02  d E =-.500928E-03
       N       E                     dE             d eps       ncg     rms          rms(c)
DAV:   1    -0.847615231356E+02   -0.10080E-02   -0.24505E-01  2000   0.158E+00    0.113E-01
RMM:   2    -0.847621088121E+02   -0.58568E-03   -0.65058E-03  2647   0.436E-01    0.736E-02
RMM:   3    -0.847622515503E+02   -0.14274E-03   -0.12504E-03  2267   0.146E-01    0.450E-02
RMM:   4    -0.847622937473E+02   -0.42197E-04   -0.20160E-04  2035   0.785E-02    0.371E-02
RMM:   5    -0.847622534632E+02    0.40284E-04   -0.67751E-05  1724   0.554E-02    0.149E-02
RMM:   6    -0.847622521347E+02    0.13286E-05   -0.22005E-05  1397   0.382E-02
  57 F= -.87900014E+02 E0= -.87893637E+02  d E =-.172144E-02
       N       E                     dE             d eps       ncg     rms          rms(c)
DAV:   1    -0.847616127474E+02    0.64072E-03   -0.98150E-01  2000   0.316E+00    0.225E-01
RMM:   2    -0.847640277743E+02   -0.24150E-02   -0.26584E-02  2615   0.862E-01    0.144E-01
RMM:   3    -0.847645154442E+02   -0.48767E-03   -0.41667E-03  2502   0.280E-01    0.903E-02
RMM:   4    -0.847646385548E+02   -0.12311E-03   -0.71774E-04  2372   0.141E-01    0.739E-02
RMM:   5    -0.847644974338E+02    0.14112E-03   -0.27743E-04  2136   0.102E-01    0.285E-02
RMM:   6    -0.847644876141E+02    0.98196E-05   -0.72541E-05  1756   0.603E-02
  58 F= -.87901190E+02 E0= -.87894819E+02  d E =-.289674E-02
       N       E                     dE             d eps       ncg     rms          rms(c)
DAV:   1    -0.847646218053E+02   -0.12437E-03   -0.50444E-02  2616   0.718E-01    0.531E-02
RMM:   2    -0.847647325157E+02   -0.11071E-03   -0.12251E-03  2516   0.202E-01    0.331E-02
RMM:   3    -0.847647814307E+02   -0.48915E-04   -0.38907E-04  1871   0.820E-02    0.214E-02
RMM:   4    -0.847647801529E+02    0.12778E-05   -0.45065E-05  1507   0.475E-02
  59 F= -.87901238E+02 E0= -.87894866E+02  d E =-.294485E-02
       N       E                     dE             d eps       ncg     rms          rms(c)
DAV:   1    -0.847647341579E+02    0.47273E-04   -0.14121E-03  2824   0.136E-01    0.964E-03
RMM:   2    -0.847647400753E+02   -0.59174E-05   -0.55019E-05  1448   0.451E-02
  60 F= -.87901238E+02 E0= -.87894867E+02  d E =-.294474E-02
       N       E                     dE             d eps       ncg     rms          rms(c)
DAV:   1    -0.847647708978E+02   -0.36740E-04   -0.72103E-04  2480   0.976E-02    0.698E-03
RMM:   2    -0.847647762998E+02   -0.54020E-05   -0.18311E-05  1251   0.308E-02
  61 F= -.87901244E+02 E0= -.87894875E+02  d E =-.295133E-02
       N       E                     dE             d eps       ncg     rms          rms(c)
DAV:   1    -0.847647588326E+02    0.12065E-04   -0.19087E-04  2016   0.576E-02    0.276E-03
RMM:   2    -0.847647614836E+02   -0.26510E-05   -0.60251E-06  1086   0.185E-02
  62 F= -.87901244E+02 E0= -.87894876E+02  d E =-.295134E-02
       N       E                     dE             d eps       ncg     rms          rms(c)
DAV:   1    -0.847647706984E+02   -0.11866E-04   -0.58681E-05  2000   0.316E-02    0.217E-03
RMM:   2    -0.847647724612E+02   -0.17628E-05   -0.19765E-06  1038   0.893E-03
  63 F= -.87901247E+02 E0= -.87894879E+02  d E =-.295371E-02
       N       E                     dE             d eps       ncg     rms          rms(c)
DAV:   1    -0.847649881098E+02   -0.21741E-03   -0.22991E-02  2048   0.487E-01    0.298E-02
RMM:   2    -0.847650181738E+02   -0.30064E-04   -0.41592E-04  1880   0.114E-01    0.205E-02
RMM:   3    -0.847650354663E+02   -0.17292E-04   -0.15686E-04  1455   0.536E-02    0.120E-02
RMM:   4    -0.847650380802E+02   -0.26139E-05   -0.17756E-05  1313   0.330E-02
  64 F= -.87901375E+02 E0= -.87895010E+02  d E =-.128895E-03
