       N       E                     dE             d eps       ncg     rms          rms(c)
DAV:   1     0.295772293846E+04    0.29577E+04   -0.89632E+04  7072   0.230E+03
DAV:   2     0.605375049211E+03   -0.23523E+04   -0.22517E+04  5624   0.762E+02
DAV:   3    -0.742624317303E+01   -0.61280E+03   -0.58582E+03  6616   0.270E+02
DAV:   4    -0.969991322813E+02   -0.89573E+02   -0.86715E+02  7840   0.105E+02
DAV:   5    -0.104317066871E+03   -0.73179E+01   -0.67226E+01  8296   0.287E+01    0.332E+01
DAV:   6    -0.116039627405E+03   -0.11723E+02   -0.19355E+02  8600   0.372E+01    0.380E+01
DAV:   7    -0.994645485432E+02    0.16575E+02   -0.17772E+02  7544   0.378E+01    0.244E+01
DAV:   8    -0.998013951597E+02   -0.33685E+00   -0.49898E+01  7864   0.130E+01    0.211E+01
DAV:   9    -0.990671879910E+02    0.73421E+00   -0.19474E+01  7848   0.123E+01    0.128E+01
DAV:  10    -0.962634249462E+02    0.28038E+01   -0.15853E+01  7704   0.122E+01    0.570E+00
DAV:  11    -0.953113083831E+02    0.95212E+00   -0.35893E+00  7832   0.648E+00    0.404E+00
DAV:  12    -0.952341208472E+02    0.77188E-01   -0.79019E-01  7016   0.248E+00    0.261E+00
DAV:  13    -0.951866979157E+02    0.47423E-01   -0.12487E-01  8480   0.125E+00    0.189E+00
DAV:  14    -0.952202558384E+02   -0.33558E-01   -0.42076E-01  7672   0.236E+00    0.237E+00
DAV:  15    -0.951523190226E+02    0.67937E-01   -0.16203E-01  7536   0.199E+00    0.775E-01
DAV:  16    -0.951456480011E+02    0.66710E-02   -0.26189E-02  7552   0.573E-01    0.391E-01
DAV:  17    -0.951461344607E+02   -0.48646E-03   -0.12207E-02  7312   0.373E-01    0.337E-01
DAV:  18    -0.951449277160E+02    0.12067E-02   -0.23326E-03  7416   0.210E-01    0.249E-01
DAV:  19    -0.951441685660E+02    0.75915E-03   -0.26398E-03  7624   0.183E-01    0.441E-02
DAV:  20    -0.951442765563E+02   -0.10799E-03   -0.34264E-04  7416   0.752E-02    0.414E-02
DAV:  21    -0.951444445975E+02   -0.16804E-03   -0.15683E-04  6384   0.589E-02    0.207E-02
DAV:  22    -0.951449376995E+02   -0.49310E-03   -0.18653E-04  5216   0.357E-02    0.197E-02
DAV:  23    -0.951451208971E+02   -0.18320E-03   -0.68677E-05  5728   0.289E-02    0.141E-02
DAV:  24    -0.951453383559E+02   -0.21746E-03   -0.19468E-05  4752   0.185E-02    0.824E-03
DAV:  25    -0.951455276376E+02   -0.18928E-03   -0.17708E-05  5104   0.146E-02    0.872E-03
DAV:  26    -0.951456985380E+02   -0.17090E-03   -0.11916E-05  4592   0.152E-02    0.511E-03
DAV:  27    -0.951457781217E+02   -0.79584E-04   -0.33733E-06  3976   0.945E-03    0.385E-03
DAV:  28    -0.951458067848E+02   -0.28663E-04   -0.19893E-06  3600   0.716E-03    0.231E-03
DAV:  29    -0.951458188561E+02   -0.12071E-04   -0.16706E-06  3600   0.695E-03    0.974E-04
DAV:  30    -0.951458236727E+02   -0.48166E-05   -0.96785E-07  3424   0.444E-03
   1 F= -.98107957E+02 E0= -.98113729E+02  d E =0.173173E-01
       N       E                     dE             d eps       ncg     rms          rms(c)
DAV:   1    -0.951444392449E+02    0.13796E-02   -0.13173E-01  4568   0.373E-01    0.136E-01
DAV:   2    -0.951444838072E+02   -0.44562E-04   -0.15804E-03  5840   0.613E-02    0.781E-02
DAV:   3    -0.951444876311E+02   -0.38239E-05   -0.15933E-04  6072   0.379E-02    0.279E-02
DAV:   4    -0.951445341331E+02   -0.46502E-04   -0.23209E-04  6488   0.781E-02    0.420E-02
DAV:   5    -0.951444898971E+02    0.44236E-04   -0.13780E-04  4800   0.553E-02    0.167E-02
DAV:   6    -0.951444894573E+02    0.43982E-06   -0.13098E-05  4288   0.178E-02
   2 F= -.98106690E+02 E0= -.98112466E+02  d E =0.173298E-01
       N       E                     dE             d eps       ncg     rms          rms(c)
DAV:   1    -0.951444643496E+02    0.25548E-04   -0.52948E-01  4504   0.749E-01    0.273E-01
DAV:   2    -0.951446498693E+02   -0.18552E-03   -0.61403E-03  5664   0.121E-01    0.156E-01
DAV:   3    -0.951446767133E+02   -0.26844E-04   -0.68528E-04  6248   0.783E-02    0.535E-02
DAV:   4    -0.951447824205E+02   -0.10571E-03   -0.70306E-04  6728   0.145E-01    0.513E-02
DAV:   5    -0.951446804864E+02    0.10193E-03   -0.42625E-04  6176   0.115E-01    0.272E-02
DAV:   6    -0.951446820120E+02   -0.15257E-05   -0.60783E-05  5120   0.234E-02
   3 F= -.98106750E+02 E0= -.98112509E+02  d E =0.172767E-01
       N       E                     dE             d eps       ncg     rms          rms(c)
DAV:   1    -0.951443799544E+02    0.30053E-03   -0.27217E-01  4528   0.534E-01    0.182E-01
DAV:   2    -0.951445473986E+02   -0.16744E-03   -0.40001E-03  5912   0.999E-02    0.109E-01
DAV:   3    -0.951445730134E+02   -0.25615E-04   -0.47386E-04  6104   0.743E-02    0.579E-02
DAV:   4    -0.951446471720E+02   -0.74159E-04   -0.49071E-04  6512   0.111E-01    0.776E-02
DAV:   5    -0.951445702725E+02    0.76899E-04   -0.25123E-04  5928   0.552E-02    0.329E-02
DAV:   6    -0.951445570338E+02    0.13239E-04   -0.10779E-04  4928   0.501E-02    0.157E-02
DAV:   7    -0.951445538052E+02    0.32285E-05   -0.20112E-05  4176   0.227E-02
   4 F= -.98106748E+02 E0= -.98112521E+02  d E =0.173197E-01
       N       E                     dE             d eps       ncg     rms          rms(c)
DAV:   1    -0.951448839892E+02   -0.32696E-03   -0.52259E-01  4512   0.745E-01    0.273E-01
DAV:   2    -0.951450682965E+02   -0.18431E-03   -0.55276E-03  5680   0.118E-01    0.157E-01
DAV:   3    -0.951451639988E+02   -0.95702E-04   -0.86833E-04  6192   0.114E-01    0.733E-02
DAV:   4    -0.951452002596E+02   -0.36261E-04   -0.79037E-04  6696   0.150E-01    0.813E-02
DAV:   5    -0.951451296011E+02    0.70658E-04   -0.29506E-04  6160   0.543E-02    0.409E-02
DAV:   6    -0.951451049763E+02    0.24625E-04   -0.14318E-04  5056   0.577E-02    0.177E-02
DAV:   7    -0.951451050499E+02   -0.73571E-07   -0.24886E-05  4472   0.237E-02
   5 F= -.98107179E+02 E0= -.98112949E+02  d E =0.173108E-01
       N       E                     dE             d eps       ncg     rms          rms(c)
DAV:   1    -0.951411351190E+02    0.39699E-02   -0.29040E-01  4768   0.552E-01    0.281E-01
DAV:   2    -0.951407685275E+02    0.36659E-03   -0.79227E-03  5736   0.150E-01    0.152E-01
DAV:   3    -0.951407310236E+02    0.37504E-04   -0.11681E-03  6400   0.123E-01    0.868E-02
DAV:   4    -0.951408212048E+02   -0.90181E-04   -0.11180E-03  6648   0.197E-01    0.902E-02
DAV:   5    -0.951406474374E+02    0.17377E-03   -0.50423E-04  6696   0.123E-01    0.313E-02
DAV:   6    -0.951406572261E+02   -0.97886E-05   -0.12260E-04  5928   0.456E-02    0.341E-02
DAV:   7    -0.951406371159E+02    0.20110E-04   -0.70222E-05  5592   0.371E-02    0.984E-03
DAV:   8    -0.951406375183E+02   -0.40238E-06   -0.49862E-06  3712   0.986E-03
   6 F= -.98102596E+02 E0= -.98108365E+02  d E =0.173069E-01
       N       E                     dE             d eps       ncg     rms          rms(c)
DAV:   1    -0.951415705709E+02   -0.93345E-03   -0.60846E-01  4768   0.789E-01    0.414E-01
DAV:   2    -0.951405056408E+02    0.10649E-02   -0.16698E-02  5904   0.217E-01    0.223E-01
DAV:   3    -0.951404087309E+02    0.96910E-04   -0.24548E-03  6408   0.167E-01    0.127E-01
DAV:   4    -0.951407004833E+02   -0.29175E-03   -0.26523E-03  6656   0.331E-01    0.119E-01
DAV:   5    -0.951402593081E+02    0.44118E-03   -0.15772E-03  6768   0.218E-01    0.404E-02
DAV:   6    -0.951402942262E+02   -0.34918E-04   -0.31569E-04  6320   0.623E-02    0.620E-02
DAV:   7    -0.951402410278E+02    0.53198E-04   -0.15392E-04  6360   0.398E-02    0.157E-02
DAV:   8    -0.951402408373E+02    0.19053E-06   -0.10881E-05  4312   0.160E-02
   7 F= -.98102536E+02 E0= -.98108312E+02  d E =0.173267E-01
       N       E                     dE             d eps       ncg     rms          rms(c)
DAV:   1    -0.951374918221E+02    0.27492E-02   -0.16081E+00  5464   0.162E+00    0.382E-01
DAV:   2    -0.951385214809E+02   -0.10297E-02   -0.29045E-02  6016   0.282E-01    0.228E-01
DAV:   3    -0.951382038161E+02    0.31766E-03   -0.20577E-03  6784   0.144E-01    0.142E-01
DAV:   4    -0.951385104758E+02   -0.30666E-03   -0.20544E-03  6552   0.244E-01    0.121E-01
DAV:   5    -0.951381326526E+02    0.37782E-03   -0.15368E-03  6552   0.222E-01    0.456E-02
DAV:   6    -0.951381400587E+02   -0.74061E-05   -0.19721E-04  6104   0.588E-02    0.365E-02
DAV:   7    -0.951381353862E+02    0.46724E-05   -0.10526E-04  5560   0.376E-02    0.273E-02
DAV:   8    -0.951381287422E+02    0.66440E-05   -0.33319E-05  4632   0.286E-02
   8 F= -.98100284E+02 E0= -.98106014E+02  d E =0.171893E-01
       N       E                     dE             d eps       ncg     rms          rms(c)
DAV:   1    -0.951344718774E+02    0.36635E-02   -0.63728E+00  5640   0.316E+00    0.673E-01
DAV:   2    -0.951393602262E+02   -0.48883E-02   -0.95814E-02  6312   0.559E-01    0.382E-01
DAV:   3    -0.951392497274E+02    0.11050E-03   -0.10940E-02  7264   0.452E-01    0.245E-01
DAV:   4    -0.951391390049E+02    0.11072E-03   -0.83240E-03  6880   0.487E-01    0.207E-01
DAV:   5    -0.951384922616E+02    0.64674E-03   -0.20481E-03  6312   0.211E-01    0.968E-02
DAV:   6    -0.951384851356E+02    0.71260E-05   -0.10428E-03  6736   0.138E-01    0.850E-02
DAV:   7    -0.951383797299E+02    0.10541E-03   -0.36610E-04  6152   0.819E-02    0.230E-02
DAV:   8    -0.951383817061E+02   -0.19762E-05   -0.37961E-05  5608   0.274E-02
   9 F= -.98100492E+02 E0= -.98106315E+02  d E =0.174700E-01
       N       E                     dE             d eps       ncg     rms          rms(c)
DAV:   1    -0.951352438091E+02    0.31359E-02   -0.32640E+00  5728   0.237E+00    0.549E-01
DAV:   2    -0.951402678879E+02   -0.50241E-02   -0.76532E-02  6336   0.477E-01    0.301E-01
DAV:   3    -0.951400331863E+02    0.23470E-03   -0.52827E-03  6888   0.262E-01    0.238E-01
DAV:   4    -0.951404672121E+02   -0.43403E-03   -0.36957E-03  6792   0.282E-01    0.262E-01
DAV:   5    -0.951401549202E+02    0.31229E-03   -0.32967E-03  6296   0.157E-01    0.152E-01
DAV:   6    -0.951397456275E+02    0.40929E-03   -0.27011E-03  6744   0.265E-01    0.609E-02
DAV:   7    -0.951396410289E+02    0.10460E-03   -0.40824E-04  6032   0.104E-01    0.150E-02
DAV:   8    -0.951396459410E+02   -0.49121E-05   -0.33125E-05  5448   0.195E-02
  10 F= -.98101794E+02 E0= -.98107548E+02  d E =0.172623E-01
       N       E                     dE             d eps       ncg     rms          rms(c)
DAV:   1    -0.951369427279E+02    0.26983E-02   -0.62984E+00  5528   0.310E+00    0.644E-01
DAV:   2    -0.951408089776E+02   -0.38662E-02   -0.84874E-02  6248   0.491E-01    0.374E-01
DAV:   3    -0.951404814195E+02    0.32756E-03   -0.80509E-03  7000   0.327E-01    0.250E-01
DAV:   4    -0.951411949199E+02   -0.71350E-03   -0.73976E-03  6936   0.344E-01    0.317E-01
DAV:   5    -0.951402562537E+02    0.93867E-03   -0.39184E-03  6712   0.194E-01    0.121E-01
DAV:   6    -0.951398713167E+02    0.38494E-03   -0.18500E-03  6608   0.230E-01    0.509E-02
DAV:   7    -0.951398513737E+02    0.19943E-04   -0.19293E-04  5856   0.600E-02    0.208E-02
DAV:   8    -0.951398535094E+02   -0.21357E-05   -0.31367E-05  5576   0.239E-02
  11 F= -.98101970E+02 E0= -.98107767E+02  d E =0.173885E-01
       N       E                     dE             d eps       ncg     rms          rms(c)
DAV:   1    -0.951350558599E+02    0.47955E-02   -0.31867E+00  5584   0.220E+00    0.711E-01
DAV:   2    -0.951377941333E+02   -0.27383E-02   -0.50392E-02  6688   0.362E-01    0.439E-01
DAV:   3    -0.951377037454E+02    0.90388E-04   -0.36076E-03  6464   0.144E-01    0.193E-01
DAV:   4    -0.951400971687E+02   -0.23934E-02   -0.71074E-03  7000   0.221E-01    0.431E-01
DAV:   5    -0.951376248677E+02    0.24723E-02   -0.52381E-03  6744   0.213E-01    0.468E-02
DAV:   6    -0.951376302617E+02   -0.53941E-05   -0.77839E-04  6544   0.136E-01    0.356E-02
DAV:   7    -0.951375992539E+02    0.31008E-04   -0.16892E-04  5824   0.636E-02    0.126E-02
DAV:   8    -0.951376005584E+02   -0.13045E-05   -0.15552E-05  4776   0.138E-02
  12 F= -.98099122E+02 E0= -.98104969E+02  d E =0.175403E-01
       N       E                     dE             d eps       ncg     rms          rms(c)
DAV:   1    -0.951301267235E+02    0.74725E-02   -0.65462E+00  5344   0.321E+00    0.126E+00
DAV:   2    -0.951355217275E+02   -0.53950E-02   -0.90559E-02  6624   0.478E-01    0.818E-01
DAV:   3    -0.951357473428E+02   -0.22562E-03   -0.74412E-03  6648   0.190E-01    0.240E-01
DAV:   4    -0.951363205384E+02   -0.57320E-03   -0.26581E-03  6552   0.231E-01    0.152E-01
DAV:   5    -0.951359290722E+02    0.39147E-03   -0.21159E-03  7048   0.211E-01    0.927E-02
DAV:   6    -0.951359107415E+02    0.18331E-04   -0.38659E-04  6400   0.609E-02    0.657E-02
DAV:   7    -0.951358409232E+02    0.69818E-04   -0.26088E-04  6528   0.884E-02    0.220E-02
DAV:   8    -0.951358413921E+02   -0.46892E-06   -0.31386E-05  4888   0.313E-02
  13 F= -.98098591E+02 E0= -.98104308E+02  d E =0.171531E-01
       N       E                     dE             d eps       ncg     rms          rms(c)
DAV:   1    -0.951354267079E+02    0.41422E-03   -0.30691E+00  5528   0.235E+00    0.696E-01
DAV:   2    -0.951381296967E+02   -0.27030E-02   -0.51074E-02  6216   0.386E-01    0.499E-01
DAV:   3    -0.951380937281E+02    0.35969E-04   -0.47999E-03  6944   0.187E-01    0.195E-01
DAV:   4    -0.951389456690E+02   -0.85194E-03   -0.39354E-03  6744   0.322E-01    0.169E-01
DAV:   5    -0.951381911945E+02    0.75447E-03   -0.33014E-03  6704   0.281E-01    0.993E-02
DAV:   6    -0.951382393111E+02   -0.48117E-04   -0.64149E-04  6440   0.842E-02    0.955E-02
DAV:   7    -0.951380973178E+02    0.14199E-03   -0.31915E-04  5656   0.898E-02    0.156E-02
DAV:   8    -0.951380996595E+02   -0.23417E-05   -0.24792E-05  4992   0.166E-02
  14 F= -.98100230E+02 E0= -.98106045E+02  d E =0.174458E-01
       N       E                     dE             d eps       ncg     rms          rms(c)
DAV:   1    -0.951356090176E+02    0.24883E-02   -0.58232E+00  5504   0.329E+00    0.843E-01
DAV:   2    -0.951403032004E+02   -0.46942E-02   -0.13657E-01  6360   0.570E-01    0.466E-01
DAV:   3    -0.951389565583E+02    0.13466E-02   -0.82929E-03  6624   0.215E-01    0.312E-01
DAV:   4    -0.951390027872E+02   -0.46229E-04   -0.19831E-03  5832   0.103E-01    0.151E-01
DAV:   5    -0.951393669554E+02   -0.36417E-03   -0.15167E-03  6792   0.188E-01    0.999E-02
DAV:   6    -0.951391064888E+02    0.26047E-03   -0.13658E-03  6416   0.199E-01    0.536E-02
DAV:   7    -0.951390911812E+02    0.15308E-04   -0.30387E-04  6480   0.765E-02    0.523E-02
DAV:   8    -0.951390645320E+02    0.26649E-04   -0.97723E-05  5984   0.300E-02    0.158E-02
DAV:   9    -0.951390723360E+02   -0.78039E-05   -0.20414E-05  4480   0.299E-02
  15 F= -.98101210E+02 E0= -.98106945E+02  d E =0.172051E-01
       N       E                     dE             d eps       ncg     rms          rms(c)
DAV:   1    -0.951370844685E+02    0.19801E-02   -0.31670E+00  5544   0.243E+00    0.614E-01
DAV:   2    -0.951406380419E+02   -0.35536E-02   -0.82843E-02  6720   0.447E-01    0.327E-01
DAV:   3    -0.951399445175E+02    0.69352E-03   -0.48275E-03  6024   0.147E-01    0.221E-01
DAV:   4    -0.951400190974E+02   -0.74580E-04   -0.16920E-03  6048   0.160E-01    0.104E-01
DAV:   5    -0.951403586018E+02   -0.33950E-03   -0.26707E-03  6720   0.303E-01    0.100E-01
DAV:   6    -0.951399697076E+02    0.38889E-03   -0.15822E-03  6512   0.214E-01    0.644E-02
DAV:   7    -0.951399301024E+02    0.39605E-04   -0.21390E-04  6152   0.407E-02    0.340E-02
DAV:   8    -0.951399191058E+02    0.10997E-04   -0.37192E-05  5168   0.214E-02    0.130E-02
DAV:   9    -0.951399221345E+02   -0.30286E-05   -0.86683E-06  4312   0.158E-02
  16 F= -.98102155E+02 E0= -.98107956E+02  d E =0.174017E-01
       N       E                     dE             d eps       ncg     rms          rms(c)
DAV:   1    -0.951377035555E+02    0.22156E-02   -0.57139E+00  5576   0.321E+00    0.834E-01
DAV:   2    -0.951412601619E+02   -0.35566E-02   -0.12387E-01  6520   0.547E-01    0.459E-01
DAV:   3    -0.951402196706E+02    0.10405E-02   -0.83235E-03  6184   0.284E-01    0.303E-01
DAV:   4    -0.951412294563E+02   -0.10098E-02   -0.68308E-03  6376   0.436E-01    0.230E-01
DAV:   5    -0.951404847874E+02    0.74467E-03   -0.58719E-03  6752   0.466E-01    0.117E-01
DAV:   6    -0.951405158274E+02   -0.31040E-04   -0.15846E-03  6304   0.198E-01    0.119E-01
DAV:   7    -0.951403286342E+02    0.18719E-03   -0.64375E-04  6576   0.871E-02    0.458E-02
DAV:   8    -0.951403085733E+02    0.20061E-04   -0.94042E-05  5928   0.437E-02    0.188E-02
DAV:   9    -0.951403121088E+02   -0.35355E-05   -0.24960E-05  5424   0.233E-02
  17 F= -.98102342E+02 E0= -.98108095E+02  d E =0.172583E-01
       N       E                     dE             d eps       ncg     rms          rms(c)
DAV:   1    -0.951411994357E+02   -0.89086E-03   -0.30661E+00  5608   0.233E+00    0.540E-01
DAV:   2    -0.951435393676E+02   -0.23399E-02   -0.41716E-02  6280   0.344E-01    0.374E-01
DAV:   3    -0.951436554092E+02   -0.11604E-03   -0.33832E-03  7280   0.222E-01    0.193E-01
DAV:   4    -0.951449229094E+02   -0.12675E-02   -0.58429E-03  6840   0.439E-01    0.204E-01
DAV:   5    -0.951437021767E+02    0.12207E-02   -0.30964E-03  6528   0.330E-01    0.440E-02
DAV:   6    -0.951437932875E+02   -0.91111E-04   -0.31251E-04  6464   0.659E-02    0.666E-02
DAV:   7    -0.951437231633E+02    0.70124E-04   -0.24025E-04  5624   0.675E-02    0.194E-02
DAV:   8    -0.951437208528E+02    0.23106E-05   -0.25731E-05  4680   0.207E-02
  18 F= -.98105335E+02 E0= -.98111116E+02  d E =0.173431E-01
       N       E                     dE             d eps       ncg     rms          rms(c)
DAV:   1    -0.951359744309E+02    0.77487E-02   -0.66292E+00  5488   0.349E+00    0.911E-01
DAV:   2    -0.951424686141E+02   -0.64942E-02   -0.81675E-02  6760   0.494E-01    0.646E-01
DAV:   3    -0.951444180882E+02   -0.19495E-02   -0.11705E-02  7416   0.507E-01    0.364E-01
DAV:   4    -0.951480856712E+02   -0.36676E-02   -0.25922E-02  7224   0.950E-01    0.330E-01
DAV:   5    -0.951439481773E+02    0.41375E-02   -0.11453E-02  6584   0.691E-01    0.950E-02
DAV:   6    -0.951439579961E+02   -0.98188E-05   -0.81765E-04  6944   0.826E-02    0.823E-02
DAV:   7    -0.951439111842E+02    0.46812E-04   -0.23168E-04  6256   0.643E-02    0.390E-02
DAV:   8    -0.951439045024E+02    0.66818E-05   -0.70288E-05  6256   0.401E-02
  19 F= -.98106555E+02 E0= -.98112320E+02  d E =0.172970E-01
