       N       E                     dE             d eps       ncg     rms          rms(c)
DAV:   1     0.223092334516E+04    0.22309E+04   -0.92455E+04  5800   0.157E+03
DAV:   2     0.286037139098E+03   -0.19449E+04   -0.18878E+04  5680   0.453E+02
DAV:   3    -0.617596814374E+02   -0.34780E+03   -0.33903E+03  6480   0.199E+02
DAV:   4    -0.919457506250E+02   -0.30186E+02   -0.29662E+02  6744   0.554E+01
DAV:   5    -0.953083684374E+02   -0.33626E+01   -0.33336E+01  9264   0.125E+01    0.100E+02
RMM:   6    -0.890167318288E+02    0.62916E+01   -0.20795E+01  6458   0.670E+00    0.501E+01
RMM:   7    -0.989936937472E+02   -0.99770E+01   -0.14279E+01  6866   0.667E+00    0.193E+01
RMM:   8    -0.893377907632E+02    0.96559E+01   -0.38996E+00  6739   0.439E+00    0.965E+00
RMM:   9    -0.883837578735E+02    0.95403E+00   -0.25291E+00  7979   0.252E+00    0.419E+00
RMM:  10    -0.882990540354E+02    0.84704E-01   -0.93957E-01  8829   0.143E+00    0.288E+00
RMM:  11    -0.882735779584E+02    0.25476E-01   -0.15988E-01  9142   0.822E-01    0.100E+00
RMM:  12    -0.882763196332E+02   -0.27417E-02   -0.10205E-01  9536   0.521E-01    0.518E-01
RMM:  13    -0.882812292454E+02   -0.49096E-02   -0.52232E-02  9572   0.341E-01    0.367E-01
RMM:  14    -0.882812913881E+02   -0.62143E-04   -0.28043E-02  9354   0.296E-01    0.249E-01
RMM:  15    -0.882832281827E+02   -0.19368E-02   -0.20010E-02  9714   0.205E-01    0.172E-01
RMM:  16    -0.882851253424E+02   -0.18972E-02   -0.14194E-02  9603   0.151E-01    0.117E-01
RMM:  17    -0.882859337401E+02   -0.80840E-03   -0.83143E-03  9444   0.125E-01    0.329E-02
RMM:  18    -0.882867679227E+02   -0.83418E-03   -0.55730E-03  9594   0.909E-02    0.242E-02
RMM:  19    -0.882874492253E+02   -0.68130E-03   -0.32864E-03  9367   0.729E-02    0.158E-02
RMM:  20    -0.882880207874E+02   -0.57156E-03   -0.25163E-03  8893   0.572E-02    0.254E-02
RMM:  21    -0.882884920775E+02   -0.47129E-03   -0.14593E-03  8524   0.468E-02    0.192E-02
RMM:  22    -0.882886892261E+02   -0.19715E-03   -0.11432E-03  7632   0.374E-02    0.244E-02
RMM:  23    -0.882887665307E+02   -0.77305E-04   -0.67060E-04  6566   0.301E-02    0.296E-02
RMM:  24    -0.882888536506E+02   -0.87120E-04   -0.53580E-04  5677   0.245E-02    0.316E-02
RMM:  25    -0.882889161132E+02   -0.62463E-04   -0.34990E-04  5056   0.201E-02    0.385E-02
RMM:  26    -0.882889451620E+02   -0.29049E-04   -0.25667E-04  4721   0.171E-02    0.525E-02
RMM:  27    -0.882889624186E+02   -0.17257E-04   -0.20057E-04  4467   0.139E-02    0.431E-02
RMM:  28    -0.882889835908E+02   -0.21172E-04   -0.12979E-04  4442   0.132E-02    0.639E-02
RMM:  29    -0.882889883402E+02   -0.47495E-05   -0.96142E-05  4028   0.107E-02
   1 F= -.91360608E+02 E0= -.91361152E+02  d E =-.913606E+02
       N       E                     dE             d eps       ncg     rms          rms(c)
DAV:   1    -0.475236700318E+02    0.40765E+02   -0.35074E+03  5912   0.969E+01    0.653E+01
RMM:   2    -0.755632664539E+02   -0.28040E+02   -0.33561E+02  6672   0.328E+01    0.392E+01
RMM:   3    -0.853899570192E+02   -0.98267E+01   -0.86002E+01  6883   0.140E+01    0.136E+01
RMM:   4    -0.936282363073E+02   -0.82383E+01   -0.42092E+01  7047   0.909E+00    0.180E+01
RMM:   5    -0.867089935928E+02    0.69192E+01   -0.11381E+01  7470   0.523E+00    0.119E+01
RMM:   6    -0.859221413484E+02    0.78685E+00   -0.53495E+00  8568   0.325E+00    0.734E+00
RMM:   7    -0.875510504561E+02   -0.16289E+01   -0.40947E+00  8286   0.280E+00    0.124E+01
RMM:   8    -0.865002707600E+02    0.10508E+01   -0.16926E+00  8724   0.201E+00    0.105E+01
RMM:   9    -0.858490239325E+02    0.65125E+00   -0.18945E+00  8881   0.171E+00    0.369E+00
RMM:  10    -0.859064044006E+02   -0.57380E-01   -0.12323E+00  8386   0.158E+00    0.190E+00
RMM:  11    -0.860061469022E+02   -0.99743E-01   -0.92139E-01  8892   0.126E+00    0.254E+00
RMM:  12    -0.860540610172E+02   -0.47914E-01   -0.54731E-01  9477   0.940E-01    0.251E+00
RMM:  13    -0.860838826951E+02   -0.29822E-01   -0.45421E-01  9081   0.782E-01    0.140E+00
RMM:  14    -0.861217981970E+02   -0.37916E-01   -0.31279E-01  9204   0.673E-01    0.118E+00
RMM:  15    -0.861491801743E+02   -0.27382E-01   -0.24572E-01  9109   0.557E-01    0.139E+00
RMM:  16    -0.861667589450E+02   -0.17579E-01   -0.17841E-01  8478   0.469E-01    0.146E+00
RMM:  17    -0.861780533903E+02   -0.11294E-01   -0.14101E-01  8403   0.402E-01    0.135E+00
RMM:  18    -0.861889973180E+02   -0.10944E-01   -0.10521E-01  7881   0.344E-01    0.142E+00
RMM:  19    -0.861972764073E+02   -0.82791E-02   -0.83495E-02  7796   0.302E-01    0.146E+00
RMM:  20    -0.862104245528E+02   -0.13148E-01   -0.74675E-02  8507   0.335E-01    0.197E+00
RMM:  21    -0.862161662745E+02   -0.57417E-02   -0.58582E-02  8277   0.265E-01    0.213E+00
RMM:  22    -0.862206832570E+02   -0.45170E-02   -0.45931E-02  7448   0.217E-01    0.217E+00
RMM:  23    -0.862162727289E+02    0.44105E-02   -0.33533E-02  7985   0.244E-01    0.153E+00
RMM:  24    -0.862176270377E+02   -0.13543E-02   -0.25669E-02  7785   0.200E-01    0.124E+00
RMM:  25    -0.862176923602E+02   -0.65322E-04   -0.20784E-02  7265   0.185E-01    0.928E-01
RMM:  26    -0.862178832529E+02   -0.19089E-03   -0.15040E-02  6482   0.140E-01    0.710E-01
RMM:  27    -0.862182507244E+02   -0.36747E-03   -0.11804E-02  6158   0.120E-01    0.539E-01
RMM:  28    -0.862186443655E+02   -0.39364E-03   -0.88377E-03  5816   0.928E-02    0.420E-01
RMM:  29    -0.862189810557E+02   -0.33669E-03   -0.68565E-03  5793   0.814E-02    0.259E-01
RMM:  30    -0.862195511234E+02   -0.57007E-03   -0.50972E-03  5608   0.654E-02    0.214E-01
RMM:  31    -0.862199063109E+02   -0.35519E-03   -0.41900E-03  5475   0.551E-02    0.172E-01
RMM:  32    -0.862201557606E+02   -0.24945E-03   -0.33390E-03  5332   0.487E-02    0.117E-01
RMM:  33    -0.862203850936E+02   -0.22933E-03   -0.27076E-03  5062   0.405E-02    0.882E-02
RMM:  34    -0.862205800821E+02   -0.19499E-03   -0.21564E-03  4780   0.352E-02    0.662E-02
RMM:  35    -0.862207455578E+02   -0.16548E-03   -0.17470E-03  4209   0.296E-02    0.561E-02
RMM:  36    -0.862208791954E+02   -0.13364E-03   -0.14104E-03  4367   0.279E-02    0.360E-02
RMM:  37    -0.862209902427E+02   -0.11105E-03   -0.11606E-03  3563   0.236E-02    0.291E-02
RMM:  38    -0.862210799958E+02   -0.89753E-04   -0.94901E-04  3351   0.211E-02    0.252E-02
RMM:  39    -0.862211541227E+02   -0.74127E-04   -0.78052E-04  2813   0.183E-02    0.292E-02
RMM:  40    -0.862212151166E+02   -0.60994E-04   -0.64510E-04  3002   0.167E-02    0.294E-02
RMM:  41    -0.862212657081E+02   -0.50591E-04   -0.53446E-04  2700   0.149E-02    0.315E-02
RMM:  42    -0.862213075138E+02   -0.41806E-04   -0.44246E-04  2407   0.134E-02    0.345E-02
RMM:  43    -0.862213424766E+02   -0.34963E-04   -0.37013E-04  2514   0.124E-02    0.358E-02
RMM:  44    -0.862213713044E+02   -0.28828E-04   -0.30690E-04  2288   0.113E-02    0.380E-02
RMM:  45    -0.862213954499E+02   -0.24145E-04   -0.25733E-04  2227   0.106E-02    0.400E-02
RMM:  46    -0.862214154813E+02   -0.20031E-04   -0.21584E-04  2521   0.100E-02    0.396E-02
RMM:  47    -0.862214319594E+02   -0.16478E-04   -0.18127E-04  2526   0.948E-03    0.384E-02
RMM:  48    -0.862214460414E+02   -0.14082E-04   -0.15194E-04  2121   0.858E-03    0.400E-02
RMM:  49    -0.862214577866E+02   -0.11745E-04   -0.12783E-04  2201   0.809E-03    0.404E-02
RMM:  50    -0.862214676875E+02   -0.99009E-05   -0.10841E-04  2032   0.750E-03    0.418E-02
RMM:  51    -0.862214760185E+02   -0.83310E-05   -0.91031E-05  2002   0.700E-03
   2 F= -.89391636E+02 E0= -.89380718E+02  d E =0.196897E+01
       N       E                     dE             d eps       ncg     rms          rms(c)
DAV:   1    -0.864002556156E+02   -0.17879E+00   -0.11754E+02  6840   0.197E+01    0.852E+00
RMM:   2    -0.892485292820E+02   -0.28483E+01   -0.56392E+00  6216   0.456E+00    0.156E+01
RMM:   3    -0.873676983720E+02    0.18808E+01   -0.23553E+00  6605   0.245E+00    0.503E+00
RMM:   4    -0.871543894734E+02    0.21331E+00   -0.26426E-01  6588   0.116E+00    0.454E+00
RMM:   5    -0.869245453094E+02    0.22984E+00   -0.10836E-01  7001   0.679E-01    0.336E+00
RMM:   6    -0.867320005410E+02    0.19254E+00   -0.25032E-01  7672   0.546E-01    0.259E+00
RMM:   7    -0.867136791813E+02    0.18321E-01   -0.16002E-02  8924   0.236E-01    0.172E+00
RMM:   8    -0.867173768723E+02   -0.36977E-02   -0.87164E-03  8195   0.139E-01    0.241E+00
RMM:   9    -0.866961225081E+02    0.21254E-01   -0.36555E-02  7416   0.212E-01    0.693E-01
RMM:  10    -0.867119554183E+02   -0.15833E-01   -0.55873E-03  7749   0.122E-01    0.168E+00
RMM:  11    -0.866980336538E+02    0.13922E-01   -0.30701E-03  6876   0.867E-02    0.513E-01
RMM:  12    -0.867003278099E+02   -0.22942E-02   -0.15405E-03  6786   0.764E-02    0.262E-01
RMM:  13    -0.866999093435E+02    0.41847E-03   -0.45094E-04  5837   0.341E-02    0.656E-02
RMM:  14    -0.867000934174E+02   -0.18407E-03   -0.22278E-04  5548   0.236E-02    0.284E-02
RMM:  15    -0.867001954577E+02   -0.10204E-03   -0.17256E-04  5325   0.176E-02    0.132E-02
RMM:  16    -0.867002349304E+02   -0.39473E-04   -0.88316E-05  4852   0.130E-02    0.151E-02
RMM:  17    -0.867002651254E+02   -0.30195E-04   -0.65767E-05  4160   0.102E-02    0.196E-02
RMM:  18    -0.867002891582E+02   -0.24033E-04   -0.40556E-05  3862   0.860E-03    0.387E-03
RMM:  19    -0.867003034198E+02   -0.14262E-04   -0.27941E-05  3249   0.679E-03    0.132E-03
RMM:  20    -0.867003153793E+02   -0.11960E-04   -0.20310E-05  3039   0.603E-03    0.161E-03
RMM:  21    -0.867003179976E+02   -0.26183E-05   -0.12350E-05  2720   0.533E-03
   3 F= -.89858690E+02 E0= -.89849556E+02  d E =0.150192E+01
       N       E                     dE             d eps       ncg     rms          rms(c)
DAV:   1    -0.824801988936E+02    0.42201E+01   -0.15875E+03  5816   0.966E+01    0.246E+01
RMM:   2    -0.883410497566E+02   -0.58609E+01   -0.16066E+02  6709   0.256E+01    0.119E+01
RMM:   3    -0.901256657815E+02   -0.17846E+01   -0.42162E+01  6989   0.134E+01    0.173E+01
RMM:   4    -0.848918768794E+02    0.52338E+01   -0.36290E+00  7467   0.709E+00    0.123E+01
RMM:   5    -0.838249020489E+02    0.10670E+01   -0.15477E+01  8475   0.489E+00    0.797E+00
RMM:   6    -0.847014451698E+02   -0.87654E+00   -0.18024E+01  7854   0.331E+00    0.120E+01
RMM:   7    -0.850370799352E+02   -0.33563E+00   -0.86631E+00  8718   0.232E+00    0.447E+00
RMM:   8    -0.862305661351E+02   -0.11935E+01   -0.89029E+00  7303   0.200E+00    0.605E+00
RMM:   9    -0.858876227619E+02    0.34294E+00   -0.14907E+00  8431   0.124E+00    0.548E+00
RMM:  10    -0.861612628517E+02   -0.27364E+00   -0.53746E+00  7677   0.142E+00    0.926E+00
RMM:  11    -0.855217570338E+02    0.63951E+00   -0.57417E-01  7092   0.921E-01    0.768E+00
RMM:  12    -0.852373124678E+02    0.28444E+00   -0.10026E+00  7430   0.703E-01    0.360E+00
RMM:  13    -0.853536316619E+02   -0.11632E+00   -0.48294E-01  8620   0.531E-01    0.375E+00
RMM:  14    -0.852794901177E+02    0.74142E-01   -0.65063E-02  7955   0.320E-01    0.374E+00
RMM:  15    -0.851420419098E+02    0.13745E+00   -0.11611E-01  7195   0.255E-01    0.943E-01
RMM:  16    -0.851886118921E+02   -0.46570E-01   -0.41895E-02  7419   0.189E-01    0.258E+00
RMM:  17    -0.851489378214E+02    0.39674E-01   -0.97367E-03  6705   0.108E-01    0.526E-01
RMM:  18    -0.851628884763E+02   -0.13951E-01   -0.82017E-03  6425   0.973E-02    0.119E+00
RMM:  19    -0.851749013437E+02   -0.12013E-01   -0.88735E-02  6340   0.183E-01    0.187E+00
RMM:  20    -0.851696899609E+02    0.52114E-02   -0.61423E-03  5851   0.113E-01    0.158E+00
RMM:  21    -0.851598122931E+02    0.98777E-02   -0.13936E-03  5535   0.420E-02    0.681E-01
RMM:  22    -0.851613508861E+02   -0.15386E-02   -0.92882E-03  5434   0.605E-02    0.714E-01
RMM:  23    -0.851608558912E+02    0.49499E-03   -0.42288E-03  5368   0.584E-02    0.533E-01
RMM:  24    -0.851612148746E+02   -0.35898E-03   -0.17961E-03  5124   0.380E-02    0.575E-01
RMM:  25    -0.851616982621E+02   -0.48339E-03   -0.88026E-04  4974   0.286E-02    0.702E-01
RMM:  26    -0.851610575488E+02    0.64071E-03   -0.28197E-04  4683   0.351E-02    0.407E-01
RMM:  27    -0.851610476634E+02    0.98854E-05   -0.10120E-04  3543   0.101E-02    0.320E-01
RMM:  28    -0.851612985048E+02   -0.25084E-03   -0.59663E-05  3571   0.853E-03    0.288E-01
RMM:  29    -0.851611600850E+02    0.13842E-03   -0.30826E-05  2926   0.547E-03    0.141E-01
RMM:  30    -0.851612602069E+02   -0.10012E-03   -0.35461E-05  2962   0.785E-03    0.666E-02
RMM:  31    -0.851613041636E+02   -0.43957E-04   -0.31245E-05  2872   0.689E-03    0.185E-02
RMM:  32    -0.851613275935E+02   -0.23430E-04   -0.12412E-05  2477   0.666E-03    0.262E-02
RMM:  33    -0.851613274771E+02    0.11638E-06   -0.47846E-06  1954   0.383E-03
   4 F= -.88358262E+02 E0= -.88335870E+02  d E =0.150043E+01
       N       E                     dE             d eps       ncg     rms          rms(c)
DAV:   1    -0.864864374144E+02   -0.13251E+01   -0.17390E+02  5632   0.281E+01    0.648E+00
RMM:   2    -0.896780514978E+02   -0.31916E+01   -0.53241E+00  6107   0.571E+00    0.105E+01
RMM:   3    -0.870608190151E+02    0.26172E+01   -0.23912E+00  7265   0.328E+00    0.476E+00
RMM:   4    -0.868925221118E+02    0.16830E+00   -0.24313E-01  8226   0.125E+00    0.290E+00
RMM:   5    -0.869120998291E+02   -0.19578E-01   -0.76552E-02  8434   0.542E-01    0.356E+00
RMM:   6    -0.869012319810E+02    0.10868E-01   -0.67245E-02  7966   0.365E-01    0.275E+00
RMM:   7    -0.868597414015E+02    0.41491E-01   -0.37993E-02  6858   0.339E-01    0.118E+00
RMM:   8    -0.868580270287E+02    0.17144E-02   -0.56444E-03  8691   0.158E-01    0.687E-01
RMM:   9    -0.868596355521E+02   -0.16085E-02   -0.57888E-03  8098   0.114E-01    0.590E-01
RMM:  10    -0.868585445791E+02    0.10910E-02   -0.11477E-03  7943   0.610E-02    0.247E-01
RMM:  11    -0.868590171139E+02   -0.47253E-03   -0.54505E-04  6964   0.479E-02    0.169E-01
RMM:  12    -0.868589889705E+02    0.28143E-04   -0.37602E-04  6398   0.294E-02    0.928E-02
RMM:  13    -0.868590197921E+02   -0.30822E-04   -0.17658E-04  5832   0.234E-02    0.728E-03
RMM:  14    -0.868590510149E+02   -0.31223E-04   -0.10563E-04  5277   0.155E-02    0.750E-03
RMM:  15    -0.868590703405E+02   -0.19326E-04   -0.61640E-05  4842   0.118E-02    0.380E-03
RMM:  16    -0.868590809364E+02   -0.10596E-04   -0.40581E-05  4274   0.927E-03    0.381E-03
RMM:  17    -0.868590918868E+02   -0.10950E-04   -0.30020E-05  3942   0.779E-03    0.109E-03
RMM:  18    -0.868590969483E+02   -0.50615E-05   -0.18475E-05  3406   0.639E-03
   5 F= -.90028188E+02 E0= -.90008933E+02  d E =-.169498E+00
       N       E                     dE             d eps       ncg     rms          rms(c)
DAV:   1    -0.878715690753E+02   -0.10125E+01   -0.82294E+01  5528   0.187E+01    0.508E+00
RMM:   2    -0.908768988581E+02   -0.30053E+01   -0.28151E+00  6100   0.363E+00    0.110E+01
RMM:   3    -0.878240577508E+02    0.30528E+01   -0.10069E+00  7167   0.217E+00    0.222E+00
RMM:   4    -0.878421258718E+02   -0.18068E-01   -0.17586E-01  7723   0.881E-01    0.177E+00
RMM:   5    -0.878042261492E+02    0.37900E-01   -0.23594E-02  8208   0.400E-01    0.100E+00
RMM:   6    -0.878309317741E+02   -0.26706E-01   -0.38125E-02  8299   0.275E-01    0.275E+00
RMM:   7    -0.878007946835E+02    0.30137E-01   -0.87422E-03  8023   0.169E-01    0.992E-01
RMM:   8    -0.878036355926E+02   -0.28409E-02   -0.23684E-03  8382   0.112E-01    0.391E-01
RMM:   9    -0.878035816627E+02    0.53930E-04   -0.16310E-03  7510   0.620E-02    0.324E-01
RMM:  10    -0.878034246080E+02    0.15705E-03   -0.45403E-04  6776   0.369E-02    0.599E-02
RMM:  11    -0.878036760717E+02   -0.25146E-03   -0.26176E-04  5952   0.314E-02    0.145E-02
RMM:  12    -0.878037005466E+02   -0.24475E-04   -0.14329E-04  5367   0.178E-02    0.784E-03
RMM:  13    -0.878037128020E+02   -0.12255E-04   -0.68681E-05  4843   0.126E-02    0.613E-03
RMM:  14    -0.878037227097E+02   -0.99077E-05   -0.43833E-05  4346   0.976E-03
   6 F= -.90955636E+02 E0= -.90939026E+02  d E =-.109695E+01
       N       E                     dE             d eps       ncg     rms          rms(c)
DAV:   1    -0.883671441977E+02   -0.56343E+00   -0.12279E+02  5464   0.221E+01    0.602E+00
RMM:   2    -0.911645305788E+02   -0.27974E+01   -0.31190E+00  6016   0.398E+00    0.139E+01
RMM:   3    -0.884858633833E+02    0.26787E+01   -0.15070E+00  7191   0.265E+00    0.437E+00
RMM:   4    -0.882410667355E+02    0.24480E+00   -0.16053E-01  7443   0.999E-01    0.235E+00
RMM:   5    -0.882342585633E+02    0.68082E-02   -0.11505E-01  7379   0.549E-01    0.313E+00
RMM:   6    -0.881830761705E+02    0.51182E-01   -0.11756E-02  8537   0.288E-01    0.157E+00
RMM:   7    -0.881880029767E+02   -0.49268E-02   -0.12319E-02  8087   0.199E-01    0.187E+00
RMM:   8    -0.881844009179E+02    0.36021E-02   -0.14573E-02  8595   0.149E-01    0.139E+00
RMM:   9    -0.881778583497E+02    0.65426E-02   -0.31222E-03  7541   0.992E-02    0.201E-01
RMM:  10    -0.881791585723E+02   -0.13002E-02   -0.61027E-04  6532   0.450E-02    0.329E-01
RMM:  11    -0.881788526182E+02    0.30595E-03   -0.55355E-04  6033   0.331E-02    0.770E-02
RMM:  12    -0.881790964988E+02   -0.24388E-03   -0.19662E-04  5592   0.262E-02    0.641E-02
RMM:  13    -0.881790870068E+02    0.94921E-05   -0.10123E-04  5000   0.137E-02    0.232E-02
RMM:  14    -0.881791040623E+02   -0.17055E-04   -0.48095E-05  4533   0.103E-02    0.192E-02
RMM:  15    -0.881791129401E+02   -0.88778E-05   -0.36069E-05  4237   0.825E-03
   7 F= -.91333671E+02 E0= -.91320634E+02  d E =-.147498E+01
       N       E                     dE             d eps       ncg     rms          rms(c)
DAV:   1    -0.883086531852E+02   -0.12955E+00   -0.94381E+00  5760   0.584E+00    0.541E+00
RMM:   2    -0.913001884666E+02   -0.29915E+01   -0.52496E+00  5952   0.218E+00    0.783E+00
RMM:   3    -0.890809341621E+02    0.22193E+01   -0.73486E-01  6126   0.140E+00    0.597E+00
RMM:   4    -0.886740052314E+02    0.40693E+00   -0.32836E-01  6608   0.759E-01    0.470E+00
RMM:   5    -0.882985723251E+02    0.37543E+00   -0.22809E-01  7311   0.477E-01    0.336E+00
RMM:   6    -0.882371841757E+02    0.61388E-01   -0.21947E-02  8131   0.193E-01    0.278E+00
RMM:   7    -0.882431858363E+02   -0.60017E-02   -0.29983E-02  6619   0.191E-01    0.340E+00
RMM:   8    -0.882391719192E+02    0.40139E-02   -0.61200E-03  7501   0.156E-01    0.331E+00
RMM:   9    -0.882808010998E+02   -0.41629E-01   -0.27327E-02  6792   0.175E-01    0.318E+00
RMM:  10    -0.881984173194E+02    0.82384E-01   -0.11304E-02  6154   0.160E-01    0.136E-01
RMM:  11    -0.882098999172E+02   -0.11483E-01   -0.91340E-04  5080   0.581E-02    0.103E+00
RMM:  12    -0.882036285512E+02    0.62714E-02   -0.55802E-04  5255   0.337E-02    0.250E-01
RMM:  13    -0.882055195715E+02   -0.18910E-02   -0.24601E-04  5014   0.279E-02    0.402E-01
RMM:  14    -0.882048183416E+02    0.70123E-03   -0.13101E-04  5097   0.146E-02    0.681E-02
RMM:  15    -0.882051475893E+02   -0.32925E-03   -0.75583E-05  4733   0.168E-02    0.133E-01
RMM:  16    -0.882050959203E+02    0.51669E-04   -0.26815E-05  3588   0.675E-03    0.587E-02
RMM:  17    -0.882051437633E+02   -0.47843E-04   -0.15683E-05  3330   0.698E-03    0.107E-02
RMM:  18    -0.882051670811E+02   -0.23318E-04   -0.81712E-06  2772   0.568E-03    0.819E-03
RMM:  19    -0.882051720133E+02   -0.49322E-05   -0.29729E-06  2096   0.372E-03
   8 F= -.91358754E+02 E0= -.91344734E+02  d E =-.150006E+01
       N       E                     dE             d eps       ncg     rms          rms(c)
DAV:   1    -0.867814359471E+02    0.14237E+01   -0.38366E+02  5712   0.539E+01    0.113E+01
RMM:   2    -0.907483794222E+02   -0.39669E+01   -0.28457E+01  6358   0.154E+01    0.113E+01
RMM:   3    -0.905707749850E+02    0.17760E+00   -0.98066E+00  7563   0.779E+00    0.666E+00
RMM:   4    -0.902029629562E+02    0.36781E+00   -0.12387E+00  7253   0.292E+00    0.593E+00
RMM:   5    -0.898509873440E+02    0.35198E+00   -0.30688E-01  8161   0.147E+00    0.412E+00
RMM:   6    -0.904540677471E+02   -0.60308E+00   -0.57806E-01  8692   0.117E+00    0.861E+00
RMM:   7    -0.897107966512E+02    0.74327E+00   -0.20680E-01  7617   0.862E-01    0.142E+00
RMM:   8    -0.897853476202E+02   -0.74551E-01   -0.11032E-01  9261   0.523E-01    0.256E+00
RMM:   9    -0.897482747764E+02    0.37073E-01   -0.29560E-02  8086   0.338E-01    0.712E-01
RMM:  10    -0.897626257943E+02   -0.14351E-01   -0.22667E-02  8890   0.247E-01    0.182E+00
RMM:  11    -0.897562210633E+02    0.64047E-02   -0.17327E-02  8041   0.206E-01    0.114E+00
RMM:  12    -0.897521718646E+02    0.40492E-02   -0.39272E-03  8433   0.126E-01    0.536E-01
RMM:  13    -0.897523713702E+02   -0.19951E-03   -0.21774E-03  8066   0.723E-02    0.492E-01
RMM:  14    -0.897526080692E+02   -0.23670E-03   -0.10713E-03  7735   0.519E-02    0.495E-01
RMM:  15    -0.897514478987E+02    0.11602E-02   -0.12033E-03  7521   0.505E-02    0.146E-01
RMM:  16    -0.897518573862E+02   -0.40949E-03   -0.59997E-04  7362   0.467E-02    0.437E-02
RMM:  17    -0.897518893384E+02   -0.31952E-04   -0.30179E-04  6862   0.264E-02    0.243E-02
RMM:  18    -0.897519216351E+02   -0.32297E-04   -0.15110E-04  6292   0.207E-02    0.195E-02
RMM:  19    -0.897519378079E+02   -0.16173E-04   -0.10875E-04  5431   0.155E-02    0.985E-03
RMM:  20    -0.897519490524E+02   -0.11244E-04   -0.64927E-05  4777   0.124E-02    0.472E-03
RMM:  21    -0.897519576224E+02   -0.85700E-05   -0.44486E-05  4342   0.102E-02
   9 F= -.92882024E+02 E0= -.92869783E+02  d E =-.152327E+01
       N       E                     dE             d eps       ncg     rms          rms(c)
DAV:   1    -0.894895370809E+02    0.26241E+00   -0.69271E+01  5680   0.208E+01    0.468E+00
RMM:   2    -0.909924189336E+02   -0.15029E+01   -0.38573E+00  6431   0.558E+00    0.922E+00
RMM:   3    -0.899365091240E+02    0.10559E+01   -0.11997E+00  7835   0.297E+00    0.292E+00
RMM:   4    -0.899088393649E+02    0.27670E-01   -0.19648E-01  8188   0.123E+00    0.172E+00
RMM:   5    -0.898485881266E+02    0.60251E-01   -0.38846E-02  8192   0.570E-01    0.949E-01
RMM:   6    -0.898597075214E+02   -0.11119E-01   -0.26856E-02  8736   0.347E-01    0.166E+00
RMM:   7    -0.898492148313E+02    0.10493E-01   -0.13150E-02  8462   0.231E-01    0.785E-01
RMM:   8    -0.898483059635E+02    0.90887E-03   -0.34462E-03  8435   0.151E-01    0.302E-01
RMM:   9    -0.898491369904E+02   -0.83103E-03   -0.30465E-03  8401   0.959E-02    0.440E-01
RMM:  10    -0.898483468531E+02    0.79014E-03   -0.13677E-03  7700   0.732E-02    0.122E-01
RMM:  11    -0.898485391877E+02   -0.19233E-03   -0.64212E-04  7407   0.482E-02    0.497E-02
RMM:  12    -0.898485785428E+02   -0.39355E-04   -0.38211E-04  7068   0.329E-02    0.268E-02
RMM:  13    -0.898485999527E+02   -0.21410E-04   -0.20202E-04  6548   0.251E-02    0.757E-03
RMM:  14    -0.898486198241E+02   -0.19871E-04   -0.15857E-04  6113   0.194E-02    0.525E-03
RMM:  15    -0.898486310621E+02   -0.11238E-04   -0.87474E-05  5562   0.153E-02    0.563E-03
RMM:  16    -0.898486378143E+02   -0.67523E-05   -0.62433E-05  4958   0.125E-02
  10 F= -.92968985E+02 E0= -.92959429E+02  d E =-.161023E+01
       N       E                     dE             d eps       ncg     rms          rms(c)
DAV:   1    -0.898432014246E+02    0.54296E-02   -0.20712E+00  6080   0.353E+00    0.753E-01
RMM:   2    -0.899387161665E+02   -0.95515E-01   -0.12685E-01  6452   0.909E-01    0.268E+00
RMM:   3    -0.898452380809E+02    0.93478E-01   -0.34615E-02  7741   0.496E-01    0.320E-01
RMM:   4    -0.898532144742E+02   -0.79764E-02   -0.99443E-03  7994   0.210E-01    0.334E-01
RMM:   5    -0.898517950679E+02    0.14194E-02   -0.14643E-03  8011   0.989E-02    0.220E-01
RMM:   6    -0.898523739585E+02   -0.57889E-03   -0.93524E-04  7445   0.597E-02    0.336E-01
RMM:   7    -0.898516681377E+02    0.70582E-03   -0.30095E-04  6523   0.391E-02    0.118E-01
RMM:   8    -0.898517774792E+02   -0.10934E-03   -0.11018E-04  5956   0.265E-02    0.492E-02
RMM:   9    -0.898518014158E+02   -0.23937E-04   -0.51465E-05  5221   0.147E-02    0.753E-02
RMM:  10    -0.898517670135E+02    0.34402E-04   -0.26486E-05  4609   0.123E-02    0.201E-02
RMM:  11    -0.898517775591E+02   -0.10546E-04   -0.13215E-05  3763   0.865E-03    0.225E-03
RMM:  12    -0.898517779495E+02   -0.39046E-06   -0.56264E-06  3281   0.620E-03
  11 F= -.92973740E+02 E0= -.92963733E+02  d E =-.161499E+01
       N       E                     dE             d eps       ncg     rms          rms(c)
DAV:   1    -0.899155821044E+02   -0.63805E-01   -0.24655E+01  5464   0.126E+01    0.197E+00
RMM:   2    -0.905907337980E+02   -0.67515E+00   -0.11650E+00  6129   0.329E+00    0.811E+00
RMM:   3    -0.900029649685E+02    0.58777E+00   -0.35372E-01  7773   0.173E+00    0.158E+00
RMM:   4    -0.900300185901E+02   -0.27054E-01   -0.52325E-02  8442   0.665E-01    0.612E-01
RMM:   5    -0.900295314938E+02    0.48710E-03   -0.95751E-03  8286   0.261E-01    0.561E-01
RMM:   6    -0.900273239854E+02    0.22075E-02   -0.29176E-03  8261   0.143E-01    0.263E-01
RMM:   7    -0.900275907673E+02   -0.26678E-03   -0.19207E-03  7959   0.100E-01    0.128E-01
RMM:   8    -0.900275318660E+02    0.58901E-04   -0.53038E-04  7585   0.537E-02    0.548E-02
RMM:   9    -0.900275822262E+02   -0.50360E-04   -0.29594E-04  6827   0.354E-02    0.487E-02
RMM:  10    -0.900275898314E+02   -0.76052E-05   -0.15388E-04  6217   0.250E-02    0.130E-02
RMM:  11    -0.900276039049E+02   -0.14074E-04   -0.75041E-05  5554   0.164E-02    0.772E-03
RMM:  12    -0.900276164654E+02   -0.12561E-04   -0.48476E-05  5095   0.127E-02    0.310E-03
RMM:  13    -0.900276216291E+02   -0.51636E-05   -0.26859E-05  4314   0.948E-03
  12 F= -.93141887E+02 E0= -.93133907E+02  d E =-.168148E+00
       N       E                     dE             d eps       ncg     rms          rms(c)
DAV:   1    -0.889448350553E+02    0.10828E+01   -0.23372E+02  5440   0.410E+01    0.551E+00
RMM:   2    -0.907600637722E+02   -0.18152E+01   -0.12329E+01  6181   0.111E+01    0.860E+00
RMM:   3    -0.905969973416E+02    0.16307E+00   -0.40253E+00  7602   0.578E+00    0.393E+00
RMM:   4    -0.904566476993E+02    0.14035E+00   -0.44505E-01  8236   0.207E+00    0.276E+00
RMM:   5    -0.904089030048E+02    0.47745E-01   -0.10703E-01  8232   0.842E-01    0.252E+00
RMM:   6    -0.903628220350E+02    0.46081E-01   -0.93390E-02  8555   0.528E-01    0.186E+00
RMM:   7    -0.903557329448E+02    0.70891E-02   -0.21828E-02  8771   0.309E-01    0.951E-01
RMM:   8    -0.903564787442E+02   -0.74580E-03   -0.29523E-02  8031   0.287E-01    0.783E-01
RMM:   9    -0.903535563385E+02    0.29224E-02   -0.92451E-03  7451   0.190E-01    0.313E-01
RMM:  10    -0.903540716365E+02   -0.51530E-03   -0.32468E-03  7945   0.119E-01    0.278E-01
RMM:  11    -0.903534644049E+02    0.60723E-03   -0.12270E-03  7971   0.716E-02    0.920E-02
RMM:  12    -0.903536282044E+02   -0.16380E-03   -0.10877E-03  7227   0.550E-02    0.270E-02
RMM:  13    -0.903537234741E+02   -0.95270E-04   -0.43921E-04  7043   0.343E-02    0.290E-02
RMM:  14    -0.903537540902E+02   -0.30616E-04   -0.22920E-04  6451   0.256E-02    0.805E-03
RMM:  15    -0.903537929931E+02   -0.38903E-04   -0.18840E-04  5985   0.196E-02    0.100E-02
RMM:  16    -0.903538260471E+02   -0.33054E-04   -0.10711E-04  5572   0.159E-02    0.613E-03
RMM:  17    -0.903538415809E+02   -0.15534E-04   -0.67021E-05  4770   0.122E-02    0.523E-03
RMM:  18    -0.903538650300E+02   -0.23449E-04   -0.55073E-05  4504   0.104E-02    0.183E-03
RMM:  19    -0.903538704076E+02   -0.53776E-05   -0.31177E-05  3838   0.800E-03
  13 F= -.93447199E+02 E0= -.93445468E+02  d E =-.473459E+00
       N       E                     dE             d eps       ncg     rms          rms(c)
DAV:   1    -0.823909644305E+02    0.79629E+01   -0.11472E+03  5648   0.105E+02    0.979E+00
RMM:   2    -0.882315152325E+02   -0.58406E+01   -0.64677E+01  6257   0.309E+01    0.392E+00
RMM:   3    -0.899898242788E+02   -0.17583E+01   -0.17427E+01  7498   0.134E+01    0.387E+00
RMM:   4    -0.902525849902E+02   -0.26276E+00   -0.30073E+00  8085   0.551E+00    0.466E+00
RMM:   5    -0.902642919947E+02   -0.11707E-01   -0.61777E-01  9029   0.211E+00    0.439E+00
RMM:   6    -0.902830155734E+02   -0.18724E-01   -0.20642E-01  9067   0.963E-01    0.366E+00
RMM:   7    -0.902351399776E+02    0.47876E-01   -0.26138E-01  8196   0.931E-01    0.160E+00
RMM:   8    -0.902581131429E+02   -0.22973E-01   -0.15042E-01  8078   0.715E-01    0.280E+00
RMM:   9    -0.902425331900E+02    0.15580E-01   -0.13391E-01  7112   0.797E-01    0.108E+00
RMM:  10    -0.902573595904E+02   -0.14826E-01   -0.68138E-02  8138   0.457E-01    0.233E+00
RMM:  11    -0.902427777949E+02    0.14582E-01   -0.74184E-02  7221   0.529E-01    0.439E-01
RMM:  12    -0.902431933415E+02   -0.41555E-03   -0.10484E-02  8565   0.196E-01    0.330E-01
RMM:  13    -0.902434351853E+02   -0.24184E-03   -0.59367E-03  8051   0.129E-01    0.116E-01
RMM:  14    -0.902438128370E+02   -0.37765E-03   -0.29550E-03  8176   0.857E-02    0.691E-02
RMM:  15    -0.902440720548E+02   -0.25922E-03   -0.18612E-03  7704   0.629E-02    0.207E-02
RMM:  16    -0.902442737909E+02   -0.20174E-03   -0.12031E-03  7385   0.489E-02    0.341E-02
RMM:  17    -0.902444057639E+02   -0.13197E-03   -0.71508E-04  6889   0.383E-02    0.162E-02
RMM:  18    -0.902444926958E+02   -0.86932E-04   -0.48506E-04  6373   0.299E-02    0.112E-02
RMM:  19    -0.902445599316E+02   -0.67236E-04   -0.30783E-04  5975   0.236E-02    0.554E-03
RMM:  20    -0.902446049100E+02   -0.44978E-04   -0.20262E-04  5415   0.193E-02    0.752E-03
RMM:  21    -0.902446318417E+02   -0.26932E-04   -0.13401E-04  4950   0.154E-02    0.411E-03
RMM:  22    -0.902446474176E+02   -0.15576E-04   -0.89293E-05  4477   0.124E-02    0.242E-03
RMM:  23    -0.902446557268E+02   -0.83092E-05   -0.58117E-05  4025   0.102E-02
  14 F= -.93303814E+02 E0= -.93302988E+02  d E =-.330074E+00
       N       E                     dE             d eps       ncg     rms          rms(c)
DAV:   1    -0.877713301439E+02    0.24733E+01   -0.46147E+02  5528   0.596E+01    0.788E+00
RMM:   2    -0.907636201912E+02   -0.29923E+01   -0.24311E+01  6168   0.151E+01    0.536E+00
RMM:   3    -0.906092745892E+02    0.15435E+00   -0.66052E+00  7304   0.747E+00    0.357E+00
RMM:   4    -0.904901781805E+02    0.11910E+00   -0.10386E+00  7776   0.286E+00    0.292E+00
RMM:   5    -0.904323129494E+02    0.57865E-01   -0.18089E-01  8568   0.120E+00    0.207E+00
RMM:   6    -0.904345327994E+02   -0.22199E-02   -0.95911E-02  8452   0.669E-01    0.123E+00
RMM:   7    -0.904316344233E+02    0.28984E-02   -0.54736E-02  8464   0.437E-01    0.107E+00
RMM:   8    -0.904291605468E+02    0.24739E-02   -0.17803E-02  8540   0.265E-01    0.781E-01
RMM:   9    -0.904434814707E+02   -0.14321E-01   -0.28819E-02  8768   0.213E-01    0.140E+00
RMM:  10    -0.904304023160E+02    0.13079E-01   -0.18837E-02  7474   0.186E-01    0.533E-01
RMM:  11    -0.904280886592E+02    0.23137E-02   -0.35250E-03  7103   0.126E-01    0.853E-02
RMM:  12    -0.904283714812E+02   -0.28282E-03   -0.23250E-03  7889   0.665E-02    0.894E-02
RMM:  13    -0.904285811675E+02   -0.20969E-03   -0.10252E-03  6948   0.451E-02    0.382E-02
RMM:  14    -0.904286865215E+02   -0.10535E-03   -0.46997E-04  6541   0.319E-02    0.356E-02
RMM:  15    -0.904287837800E+02   -0.97259E-04   -0.29156E-04  6138   0.247E-02    0.387E-02
RMM:  16    -0.904288072659E+02   -0.23486E-04   -0.19375E-04  5740   0.188E-02    0.923E-03
RMM:  17    -0.904288517835E+02   -0.44518E-04   -0.11797E-04  5059   0.147E-02    0.412E-03
RMM:  18    -0.904288934535E+02   -0.41670E-04   -0.85430E-05  4620   0.119E-02    0.113E-02
RMM:  19    -0.904289031240E+02   -0.96705E-05   -0.50729E-05  3951   0.928E-03
  15 F= -.93508889E+02 E0= -.93509862E+02  d E =-.535149E+00
       N       E                     dE             d eps       ncg     rms          rms(c)
DAV:   1    -0.904733870757E+02   -0.44494E-01   -0.23860E+00  5960   0.381E+00    0.394E-01
RMM:   2    -0.904862400639E+02   -0.12853E-01   -0.11359E-01  6049   0.922E-01    0.522E-01
RMM:   3    -0.904854214906E+02    0.81857E-03   -0.23251E-02  7984   0.473E-01    0.259E-01
RMM:   4    -0.904856744036E+02   -0.25291E-03   -0.40029E-03  7903   0.174E-01    0.198E-01
RMM:   5    -0.904855838341E+02    0.90570E-04   -0.82302E-04  7749   0.719E-02    0.138E-01
RMM:   6    -0.904854356736E+02    0.14816E-03   -0.41204E-04  6726   0.443E-02    0.541E-02
RMM:   7    -0.904854501078E+02   -0.14434E-04   -0.17690E-04  5869   0.305E-02    0.205E-02
RMM:   8    -0.904854516894E+02   -0.15816E-05   -0.74509E-05  5090   0.177E-02
  16 F= -.93563064E+02 E0= -.93564243E+02  d E =-.541753E-01
       N       E                     dE             d eps       ncg     rms          rms(c)
DAV:   1    -0.904831352453E+02    0.23149E-02   -0.21524E+01  5528   0.115E+01    0.127E+00
RMM:   2    -0.905814393048E+02   -0.98304E-01   -0.10180E+00  6164   0.293E+00    0.104E+00
RMM:   3    -0.905997066829E+02   -0.18267E-01   -0.23857E-01  8427   0.149E+00    0.876E-01
RMM:   4    -0.905969449256E+02    0.27618E-02   -0.39122E-02  8330   0.543E-01    0.665E-01
RMM:   5    -0.905954505879E+02    0.14943E-02   -0.77651E-03  8546   0.230E-01    0.421E-01
RMM:   6    -0.905950869074E+02    0.36368E-03   -0.50112E-03  8181   0.142E-01    0.262E-01
RMM:   7    -0.905945661338E+02    0.52077E-03   -0.19817E-03  7120   0.117E-01    0.896E-02
RMM:   8    -0.905945837068E+02   -0.17573E-04   -0.79556E-04  7693   0.649E-02    0.588E-02
RMM:   9    -0.905945931728E+02   -0.94660E-05   -0.39699E-04  7124   0.396E-02    0.210E-02
RMM:  10    -0.905946149656E+02   -0.21793E-04   -0.19464E-04  6298   0.256E-02    0.238E-02
RMM:  11    -0.905946260380E+02   -0.11072E-04   -0.11587E-04  5784   0.188E-02    0.103E-02
RMM:  12    -0.905946380419E+02   -0.12004E-04   -0.59556E-05  5176   0.133E-02    0.783E-03
RMM:  13    -0.905946431228E+02   -0.50809E-05   -0.39601E-05  4720   0.106E-02
  17 F= -.93665498E+02 E0= -.93666753E+02  d E =-.156609E+00
       N       E                     dE             d eps       ncg     rms          rms(c)
DAV:   1    -0.900751702208E+02    0.51947E+00   -0.87554E+01  5440   0.235E+01    0.298E+00
RMM:   2    -0.904681167845E+02   -0.39295E+00   -0.43715E+00  6168   0.602E+00    0.167E+00
RMM:   3    -0.906025944414E+02   -0.13448E+00   -0.12064E+00  8348   0.322E+00    0.160E+00
RMM:   4    -0.905911735564E+02    0.11421E-01   -0.14894E-01  8103   0.106E+00    0.155E+00
RMM:   5    -0.905828730299E+02    0.83005E-02   -0.32016E-02  8594   0.470E-01    0.101E+00
RMM:   6    -0.905845684373E+02   -0.16954E-02   -0.26010E-02  8208   0.305E-01    0.562E-01
RMM:   7    -0.905811224039E+02    0.34460E-02   -0.10316E-02  7272   0.249E-01    0.306E-01
RMM:   8    -0.905810263591E+02    0.96045E-04   -0.36687E-03  7516   0.156E-01    0.190E-01
RMM:   9    -0.905810464649E+02   -0.20106E-04   -0.19534E-03  8209   0.921E-02    0.918E-02
RMM:  10    -0.905811249763E+02   -0.78511E-04   -0.80268E-04  7464   0.527E-02    0.109E-01
RMM:  11    -0.905811293047E+02   -0.43284E-05   -0.55818E-04  6873   0.443E-02    0.136E-02
RMM:  12    -0.905811748387E+02   -0.45534E-04   -0.27032E-04  6513   0.284E-02    0.308E-02
RMM:  13    -0.905811948691E+02   -0.20030E-04   -0.16729E-04  5899   0.220E-02    0.676E-03
RMM:  14    -0.905812155912E+02   -0.20722E-04   -0.10371E-04  5212   0.153E-02    0.110E-02
RMM:  15    -0.905812335938E+02   -0.18003E-04   -0.68746E-05  4774   0.123E-02    0.340E-03
RMM:  16    -0.905812476439E+02   -0.14050E-04   -0.45174E-05  4328   0.101E-02    0.215E-03
RMM:  17    -0.905812591097E+02   -0.11466E-04   -0.32282E-05  4034   0.837E-03    0.929E-04
RMM:  18    -0.905812632320E+02   -0.41223E-05   -0.19944E-05  3392   0.706E-03
  18 F= -.93641009E+02 E0= -.93640604E+02  d E =-.132120E+00
       N       E                     dE             d eps       ncg     rms          rms(c)
DAV:   1    -0.904819619771E+02    0.99297E-01   -0.28340E+01  5472   0.131E+01    0.187E+00
RMM:   2    -0.905977842462E+02   -0.11582E+00   -0.12655E+00  6243   0.313E+00    0.117E+00
RMM:   3    -0.906446320264E+02   -0.46848E-01   -0.32826E-01  8037   0.168E+00    0.114E+00
RMM:   4    -0.906265757420E+02    0.18056E-01   -0.51890E-02  8169   0.622E-01    0.624E-01
RMM:   5    -0.906257786840E+02    0.79706E-03   -0.16729E-02  8092   0.278E-01    0.530E-01
RMM:   6    -0.906238569058E+02    0.19218E-02   -0.39692E-03  8270   0.156E-01    0.259E-01
RMM:   7    -0.906238411548E+02    0.15751E-04   -0.27148E-03  7645   0.111E-01    0.151E-01
RMM:   8    -0.906238243263E+02    0.16828E-04   -0.71184E-04  7492   0.610E-02    0.104E-01
RMM:   9    -0.906238348098E+02   -0.10484E-04   -0.59632E-04  6734   0.487E-02    0.420E-02
RMM:  10    -0.906238401558E+02   -0.53460E-05   -0.19617E-04  5884   0.305E-02    0.271E-02
RMM:  11    -0.906238548384E+02   -0.14683E-04   -0.12323E-04  5507   0.194E-02    0.991E-03
RMM:  12    -0.906238698091E+02   -0.14971E-04   -0.62354E-05  4973   0.149E-02    0.615E-03
RMM:  13    -0.906238817852E+02   -0.11976E-04   -0.37488E-05  4505   0.108E-02    0.298E-03
RMM:  14    -0.906238902562E+02   -0.84710E-05   -0.23852E-05  4024   0.829E-03
  19 F= -.93689626E+02 E0= -.93690340E+02  d E =-.180737E+00
       N       E                     dE             d eps       ncg     rms          rms(c)
DAV:   1    -0.906459655860E+02   -0.22084E-01   -0.14684E+00  5696   0.290E+00    0.407E-01
RMM:   2    -0.906547687393E+02   -0.88032E-02   -0.92044E-02  6223   0.689E-01    0.366E-01
RMM:   3    -0.906551165338E+02   -0.34779E-03   -0.14428E-02  7961   0.341E-01    0.243E-01
RMM:   4    -0.906552172395E+02   -0.10071E-03   -0.24738E-03  7825   0.131E-01    0.193E-01
RMM:   5    -0.906550235306E+02    0.19371E-03   -0.73571E-04  7394   0.638E-02    0.116E-01
RMM:   6    -0.906548922624E+02    0.13127E-03   -0.35050E-04  6541   0.402E-02    0.280E-02
RMM:   7    -0.906549043115E+02   -0.12049E-04   -0.11210E-04  5805   0.232E-02    0.126E-02
RMM:   8    -0.906549072112E+02   -0.28997E-05   -0.57082E-05  4831   0.146E-02
  20 F= -.93718566E+02 E0= -.93718928E+02  d E =-.289397E-01
       N       E                     dE             d eps       ncg     rms          rms(c)
DAV:   1    -0.906299360677E+02    0.24968E-01   -0.13376E+01  5456   0.862E+00    0.131E+00
RMM:   2    -0.906975331545E+02   -0.67597E-01   -0.75683E-01  6334   0.211E+00    0.973E-01
RMM:   3    -0.907090958408E+02   -0.11563E-01   -0.13641E-01  8413   0.105E+00    0.719E-01
RMM:   4    -0.907097405266E+02   -0.64469E-03   -0.25201E-02  8216   0.395E-01    0.658E-01
RMM:   5    -0.907065500058E+02    0.31905E-02   -0.65613E-03  8319   0.188E-01    0.351E-01
RMM:   6    -0.907060080026E+02    0.54200E-03   -0.38940E-03  8221   0.123E-01    0.103E-01
RMM:   7    -0.907059725123E+02    0.35490E-04   -0.94705E-04  7495   0.718E-02    0.480E-02
RMM:   8    -0.907060081736E+02   -0.35661E-04   -0.58119E-04  7310   0.443E-02    0.257E-02
RMM:   9    -0.907060415571E+02   -0.33383E-04   -0.27488E-04  6371   0.292E-02    0.167E-02
RMM:  10    -0.907060616240E+02   -0.20067E-04   -0.15510E-04  5914   0.207E-02    0.821E-03
RMM:  11    -0.907060808232E+02   -0.19199E-04   -0.96144E-05  5408   0.157E-02    0.279E-03
RMM:  12    -0.907060931759E+02   -0.12353E-04   -0.54570E-05  4959   0.119E-02    0.186E-03
RMM:  13    -0.907061047515E+02   -0.11576E-04   -0.38464E-05  4543   0.966E-03    0.114E-03
RMM:  14    -0.907061139998E+02   -0.92483E-05   -0.25881E-05  3910   0.794E-03
  21 F= -.93763954E+02 E0= -.93763219E+02  d E =-.743281E-01
       N       E                     dE             d eps       ncg     rms          rms(c)
DAV:   1    -0.907045598015E+02    0.15450E-02   -0.89013E-01  5848   0.221E+00    0.366E-01
RMM:   2    -0.907090170580E+02   -0.44573E-02   -0.50663E-02  6243   0.525E-01    0.266E-01
RMM:   3    -0.907098496206E+02   -0.83256E-03   -0.81483E-03  7911   0.265E-01    0.193E-01
RMM:   4    -0.907099228403E+02   -0.73220E-04   -0.15636E-03  7719   0.102E-01    0.157E-01
RMM:   5    -0.907096495967E+02    0.27324E-03   -0.56577E-04  7113   0.540E-02    0.753E-02
RMM:   6    -0.907095686485E+02    0.80948E-04   -0.22793E-04  6128   0.329E-02    0.206E-02
RMM:   7    -0.907095794364E+02   -0.10788E-04   -0.90690E-05  5440   0.201E-02    0.110E-02
RMM:   8    -0.907095828040E+02   -0.33676E-05   -0.43515E-05  4541   0.128E-02
  22 F= -.93766005E+02 E0= -.93765019E+02  d E =-.763791E-01
       N       E                     dE             d eps       ncg     rms          rms(c)
DAV:   1    -0.907349422733E+02   -0.25363E-01   -0.21396E+00  5536   0.334E+00    0.541E-01
RMM:   2    -0.907435968166E+02   -0.86545E-02   -0.10143E-01  6470   0.731E-01    0.364E-01
RMM:   3    -0.907451625950E+02   -0.15658E-02   -0.15362E-02  8105   0.335E-01    0.318E-01
RMM:   4    -0.907447846507E+02    0.37794E-03   -0.26267E-03  8197   0.136E-01    0.206E-01
RMM:   5    -0.907447742728E+02    0.10378E-04   -0.12425E-03  7640   0.737E-02    0.143E-01
RMM:   6    -0.907444732497E+02    0.30102E-03   -0.47120E-04  6937   0.465E-02    0.341E-02
RMM:   7    -0.907444835857E+02   -0.10336E-04   -0.17604E-04  6183   0.264E-02    0.144E-02
RMM:   8    -0.907444909275E+02   -0.73418E-05   -0.89727E-05  5341   0.178E-02
  23 F= -.93798925E+02 E0= -.93797606E+02  d E =-.329202E-01
       N       E                     dE             d eps       ncg     rms          rms(c)
DAV:   1    -0.907343783750E+02    0.10105E-01   -0.19626E+01  5440   0.102E+01    0.187E+00
RMM:   2    -0.908000053637E+02   -0.65627E-01   -0.78016E-01  6556   0.219E+00    0.115E+00
RMM:   3    -0.908164663376E+02   -0.16461E-01   -0.14110E-01  8368   0.101E+00    0.853E-01
RMM:   4    -0.908190418310E+02   -0.25755E-02   -0.24311E-02  8564   0.402E-01    0.548E-01
RMM:   5    -0.908149949828E+02    0.40468E-02   -0.94510E-03  8086   0.214E-01    0.303E-01
RMM:   6    -0.908132507899E+02    0.17442E-02   -0.36234E-03  8563   0.128E-01    0.994E-02
RMM:   7    -0.908133430836E+02   -0.92294E-04   -0.13853E-03  8244   0.733E-02    0.484E-02
RMM:   8    -0.908134218916E+02   -0.78808E-04   -0.71111E-04  7352   0.465E-02    0.211E-02
RMM:   9    -0.908134750284E+02   -0.53137E-04   -0.36995E-04  6744   0.325E-02    0.822E-03
RMM:  10    -0.908135244233E+02   -0.49395E-04   -0.22541E-04  6113   0.239E-02    0.523E-03
RMM:  11    -0.908135703697E+02   -0.45946E-04   -0.12914E-04  5699   0.181E-02    0.354E-03
RMM:  12    -0.908135964578E+02   -0.26088E-04   -0.83119E-05  5257   0.138E-02    0.191E-03
RMM:  13    -0.908136284878E+02   -0.32030E-04   -0.52550E-05  4806   0.111E-02    0.167E-03
RMM:  14    -0.908136418302E+02   -0.13342E-04   -0.34124E-05  4094   0.890E-03    0.974E-04
RMM:  15    -0.908136528205E+02   -0.10990E-04   -0.23809E-05  3528   0.770E-03    0.447E-04
RMM:  16    -0.908136562556E+02   -0.34351E-05   -0.15000E-05  3057   0.669E-03
  24 F= -.93862583E+02 E0= -.93860859E+02  d E =-.965783E-01
       N       E                     dE             d eps       ncg     rms          rms(c)
DAV:   1    -0.903396316188E+02    0.47402E+00   -0.80839E+01  5440   0.202E+01    0.616E+00
RMM:   2    -0.906674495133E+02   -0.32782E+00   -0.37612E+00  6503   0.448E+00    0.348E+00
RMM:   3    -0.907252181795E+02   -0.57769E-01   -0.71188E-01  8485   0.220E+00    0.154E+00
RMM:   4    -0.907628133874E+02   -0.37595E-01   -0.10521E-01  8549   0.804E-01    0.995E-01
RMM:   5    -0.907315414047E+02    0.31272E-01   -0.29001E-02  7800   0.389E-01    0.431E-01
RMM:   6    -0.907289853268E+02    0.25561E-02   -0.96159E-03  8873   0.217E-01    0.277E-01
RMM:   7    -0.907294178526E+02   -0.43253E-03   -0.52855E-03  8746   0.139E-01    0.109E-01
RMM:   8    -0.907295492414E+02   -0.13139E-03   -0.21639E-03  8140   0.866E-02    0.342E-02
RMM:   9    -0.907297043857E+02   -0.15514E-03   -0.14753E-03  7770   0.581E-02    0.321E-02
RMM:  10    -0.907298150826E+02   -0.11070E-03   -0.72460E-04  7055   0.409E-02    0.221E-02
RMM:  11    -0.907299214672E+02   -0.10638E-03   -0.40748E-04  6642   0.315E-02    0.867E-03
RMM:  12    -0.907300204513E+02   -0.98984E-04   -0.29823E-04  6162   0.244E-02    0.452E-03
RMM:  13    -0.907301233286E+02   -0.10288E-03   -0.18450E-04  5901   0.193E-02    0.791E-03
RMM:  14    -0.907301702642E+02   -0.46936E-04   -0.12399E-04  5350   0.150E-02    0.403E-03
RMM:  15    -0.907302046601E+02   -0.34396E-04   -0.77810E-05  4719   0.120E-02    0.264E-03
RMM:  16    -0.907302225598E+02   -0.17900E-04   -0.56794E-05  4065   0.980E-03    0.114E-03
RMM:  17    -0.907302376027E+02   -0.15043E-04   -0.36969E-05  3627   0.837E-03    0.128E-03
RMM:  18    -0.907302413099E+02   -0.37071E-05   -0.24082E-05  3240   0.713E-03
  25 F= -.93769763E+02 E0= -.93768719E+02  d E =-.375793E-02
       N       E                     dE             d eps       ncg     rms          rms(c)
DAV:   1    -0.905671570896E+02    0.16308E+00   -0.53157E+01  5440   0.158E+01    0.546E+00
RMM:   2    -0.907808107702E+02   -0.21365E+00   -0.25577E+00  6421   0.361E+00    0.306E+00
RMM:   3    -0.908573459932E+02   -0.76535E-01   -0.48886E-01  8468   0.185E+00    0.173E+00
RMM:   4    -0.908627803951E+02   -0.54344E-02   -0.82153E-02  7695   0.688E-01    0.146E+00
RMM:   5    -0.908231937472E+02    0.39587E-01   -0.28128E-02  8089   0.392E-01    0.447E-01
RMM:   6    -0.908223485958E+02    0.84515E-03   -0.14161E-02  8632   0.222E-01    0.234E-01
RMM:   7    -0.908226571112E+02   -0.30852E-03   -0.41292E-03  8448   0.121E-01    0.149E-01
RMM:   8    -0.908230531856E+02   -0.39607E-03   -0.26764E-03  8062   0.782E-02    0.583E-02
RMM:   9    -0.908232131206E+02   -0.15994E-03   -0.11488E-03  7294   0.508E-02    0.205E-02
RMM:  10    -0.908233567534E+02   -0.14363E-03   -0.64397E-04  6865   0.371E-02    0.129E-02
RMM:  11    -0.908234859397E+02   -0.12919E-03   -0.42280E-04  6310   0.276E-02    0.558E-03
RMM:  12    -0.908235391353E+02   -0.53196E-04   -0.23407E-04  5768   0.207E-02    0.471E-03
RMM:  13    -0.908236336276E+02   -0.94492E-04   -0.17515E-04  5484   0.169E-02    0.549E-03
RMM:  14    -0.908236476973E+02   -0.14070E-04   -0.10676E-04  4678   0.124E-02    0.177E-03
RMM:  15    -0.908236679639E+02   -0.20267E-04   -0.62329E-05  4371   0.102E-02    0.945E-04
RMM:  16    -0.908236739092E+02   -0.59453E-05   -0.46462E-05  3670   0.832E-03
  26 F= -.93870678E+02 E0= -.93868983E+02  d E =-.104673E+00
       N       E                     dE             d eps       ncg     rms          rms(c)
DAV:   1    -0.908373642025E+02   -0.13696E-01   -0.35273E+00  5584   0.449E+00    0.658E-01
RMM:   2    -0.908458647452E+02   -0.85005E-02   -0.10019E-01  6232   0.949E-01    0.364E-01
RMM:   3    -0.908481914549E+02   -0.23267E-02   -0.24464E-02  8012   0.485E-01    0.204E-01
RMM:   4    -0.908483161037E+02   -0.12465E-03   -0.39548E-03  8189   0.176E-01    0.175E-01
RMM:   5    -0.908477978920E+02    0.51821E-03   -0.73540E-04  7940   0.765E-02    0.866E-02
RMM:   6    -0.908478277546E+02   -0.29863E-04   -0.31218E-04  7159   0.422E-02    0.405E-02
RMM:   7    -0.908478207440E+02    0.70106E-05   -0.11485E-04  6167   0.256E-02    0.140E-02
RMM:   8    -0.908478266103E+02   -0.58663E-05   -0.74178E-05  5262   0.178E-02
  27 F= -.93893397E+02 E0= -.93891883E+02  d E =-.227188E-01
       N       E                     dE             d eps       ncg     rms          rms(c)
DAV:   1    -0.908478806719E+02   -0.59928E-04   -0.27631E-03  6120   0.126E-01    0.188E-02
RMM:   2    -0.908478910726E+02   -0.10401E-04   -0.97434E-05  5620   0.290E-02    0.103E-02
RMM:   3    -0.908478988885E+02   -0.78159E-05   -0.33764E-05  4038   0.156E-02
  28 F= -.93893430E+02 E0= -.93891922E+02  d E =-.227522E-01
       N       E                     dE             d eps       ncg     rms          rms(c)
DAV:   1    -0.908627310092E+02   -0.14840E-01   -0.34101E+00  5728   0.438E+00    0.437E-01
RMM:   2    -0.908700155597E+02   -0.72846E-02   -0.79060E-02  6202   0.100E+00    0.228E-01
RMM:   3    -0.908733339686E+02   -0.33184E-02   -0.31048E-02  8043   0.549E-01    0.162E-01
RMM:   4    -0.908734441220E+02   -0.11015E-03   -0.34181E-03  8098   0.180E-01    0.154E-01
RMM:   5    -0.908733101331E+02    0.13399E-03   -0.67484E-04  7994   0.727E-02    0.114E-01
RMM:   6    -0.908733354683E+02   -0.25335E-04   -0.25793E-04  7161   0.412E-02    0.464E-02
RMM:   7    -0.908733364992E+02   -0.10310E-05   -0.11714E-04  6185   0.285E-02    0.526E-02
RMM:   8    -0.908733374768E+02   -0.97757E-06   -0.60476E-05  5222   0.182E-02
  29 F= -.93917710E+02 E0= -.93916538E+02  d E =-.242804E-01
       N       E                     dE             d eps       ncg     rms          rms(c)
DAV:   1    -0.908553807533E+02    0.17956E-01   -0.15874E+01  5848   0.951E+00    0.101E+00
RMM:   2    -0.908915859748E+02   -0.36205E-01   -0.39665E-01  6263   0.220E+00    0.516E-01
RMM:   3    -0.909073858551E+02   -0.15800E-01   -0.16130E-01  8192   0.125E+00    0.329E-01
RMM:   4    -0.909092061184E+02   -0.18203E-02   -0.17952E-02  8468   0.409E-01    0.343E-01
RMM:   5    -0.909084048304E+02    0.80129E-03   -0.34044E-03  8536   0.162E-01    0.274E-01
RMM:   6    -0.909085100715E+02   -0.10524E-03   -0.13236E-03  7456   0.994E-02    0.121E-01
RMM:   7    -0.909085144472E+02   -0.43757E-05   -0.62137E-04  7011   0.749E-02    0.144E-01
RMM:   8    -0.909084921579E+02    0.22289E-04   -0.32764E-04  6924   0.504E-02    0.412E-02
RMM:   9    -0.909085112153E+02   -0.19057E-04   -0.22080E-04  6905   0.315E-02    0.248E-02
RMM:  10    -0.909085208266E+02   -0.96113E-05   -0.79431E-05  5658   0.206E-02
  30 F= -.93950592E+02 E0= -.93950414E+02  d E =-.571616E-01
       N       E                     dE             d eps       ncg     rms          rms(c)
DAV:   1    -0.906539001944E+02    0.25461E+00   -0.64440E+01  5912   0.195E+01    0.226E+00
RMM:   2    -0.908201840556E+02   -0.16628E+00   -0.18054E+00  6359   0.441E+00    0.111E+00
RMM:   3    -0.908895572816E+02   -0.69373E-01   -0.73590E-01  8197   0.272E+00    0.677E-01
RMM:   4    -0.908983528702E+02   -0.87956E-02   -0.85462E-02  8540   0.888E-01    0.707E-01
RMM:   5    -0.908966710801E+02    0.16818E-02   -0.14237E-02  8668   0.320E-01    0.619E-01
RMM:   6    -0.908969535673E+02   -0.28249E-03   -0.57389E-03  7406   0.234E-01    0.287E-01
RMM:   7    -0.908969044911E+02    0.49076E-04   -0.28298E-03  7274   0.171E-01    0.330E-01
RMM:   8    -0.908967925976E+02    0.11189E-03   -0.15831E-03  7314   0.116E-01    0.608E-02
RMM:   9    -0.908968763744E+02   -0.83777E-04   -0.93640E-04  7912   0.713E-02    0.875E-02
RMM:  10    -0.908968960221E+02   -0.19648E-04   -0.32321E-04  6738   0.484E-02    0.420E-02
RMM:  11    -0.908969393830E+02   -0.43361E-04   -0.21460E-04  6710   0.265E-02    0.157E-02
RMM:  12    -0.908969724185E+02   -0.33035E-04   -0.13189E-04  5925   0.222E-02    0.271E-02
RMM:  13    -0.908969849525E+02   -0.12534E-04   -0.74383E-05  5126   0.157E-02    0.775E-03
RMM:  14    -0.908970033827E+02   -0.18430E-04   -0.50397E-05  4683   0.112E-02    0.598E-03
RMM:  15    -0.908970288476E+02   -0.25465E-04   -0.36395E-05  4386   0.116E-02    0.721E-03
RMM:  16    -0.908970351077E+02   -0.62601E-05   -0.21660E-05  3846   0.850E-03
  31 F= -.93935290E+02 E0= -.93937173E+02  d E =-.418599E-01
       N       E                     dE             d eps       ncg     rms          rms(c)
DAV:   1    -0.908239944254E+02    0.73034E-01   -0.26802E+01  5592   0.123E+01    0.138E+00
RMM:   2    -0.908874422686E+02   -0.63448E-01   -0.69418E-01  6248   0.295E+00    0.713E-01
RMM:   3    -0.909159880318E+02   -0.28546E-01   -0.28432E-01  8204   0.170E+00    0.457E-01
RMM:   4    -0.909183374306E+02   -0.23494E-02   -0.30548E-02  8173   0.523E-01    0.488E-01
RMM:   5    -0.909167892502E+02    0.15482E-02   -0.56834E-03  8617   0.213E-01    0.366E-01
RMM:   6    -0.909170316022E+02   -0.24235E-03   -0.22198E-03  7438   0.135E-01    0.171E-01
RMM:   7    -0.909170036198E+02    0.27982E-04   -0.87978E-04  7158   0.961E-02    0.169E-01
RMM:   8    -0.909169881621E+02    0.15458E-04   -0.55358E-04  7285   0.633E-02    0.471E-02
RMM:   9    -0.909170163406E+02   -0.28178E-04   -0.28875E-04  7242   0.389E-02    0.370E-02
RMM:  10    -0.909170380552E+02   -0.21715E-04   -0.97952E-05  5972   0.245E-02    0.139E-02
RMM:  11    -0.909170653647E+02   -0.27310E-04   -0.76209E-05  5268   0.155E-02    0.857E-03
RMM:  12    -0.909170839183E+02   -0.18554E-04   -0.41419E-05  4655   0.113E-02    0.573E-03
RMM:  13    -0.909170916207E+02   -0.77024E-05   -0.21634E-05  4033   0.867E-03
  32 F= -.93957701E+02 E0= -.93958332E+02  d E =-.642709E-01
       N       E                     dE             d eps       ncg     rms          rms(c)
DAV:   1    -0.909238401951E+02   -0.67563E-02   -0.36084E+00  5736   0.460E+00    0.535E-01
RMM:   2    -0.909296042512E+02   -0.57641E-02   -0.90003E-02  6077   0.102E+00    0.277E-01
RMM:   3    -0.909327292345E+02   -0.31250E-02   -0.31308E-02  8031   0.550E-01    0.204E-01
RMM:   4    -0.909326185277E+02    0.11071E-03   -0.35097E-03  7924   0.176E-01    0.174E-01
RMM:   5    -0.909323476277E+02    0.27090E-03   -0.79862E-04  7823   0.753E-02    0.126E-01
RMM:   6    -0.909323523096E+02   -0.46819E-05   -0.29092E-04  6814   0.414E-02    0.487E-02
RMM:   7    -0.909323428396E+02    0.94700E-05   -0.14116E-04  5816   0.278E-02    0.264E-02
RMM:   8    -0.909323460424E+02   -0.32028E-05   -0.67701E-05  4905   0.168E-02
  33 F= -.93972965E+02 E0= -.93974052E+02  d E =-.152641E-01
       N       E                     dE             d eps       ncg     rms          rms(c)
DAV:   1    -0.909325369920E+02   -0.19415E-03   -0.71441E-01  6224   0.204E+00    0.234E-01
RMM:   2    -0.909336656708E+02   -0.11287E-02   -0.17849E-02  6014   0.453E-01    0.121E-01
RMM:   3    -0.909342638575E+02   -0.59819E-03   -0.59932E-03  7735   0.243E-01    0.888E-02
RMM:   4    -0.909342504795E+02    0.13378E-04   -0.73476E-04  7624   0.803E-02    0.782E-02
RMM:   5    -0.909342011701E+02    0.49309E-04   -0.18826E-04  6718   0.345E-02    0.556E-02
RMM:   6    -0.909342010781E+02    0.92004E-07   -0.76491E-05  5410   0.205E-02
  34 F= -.93974838E+02 E0= -.93976112E+02  d E =-.171368E-01
       N       E                     dE             d eps       ncg     rms          rms(c)
DAV:   1    -0.909318588161E+02    0.23424E-02   -0.28348E+00  5776   0.417E+00    0.639E-01
RMM:   2    -0.909399758562E+02   -0.81170E-02   -0.91708E-02  6037   0.945E-01    0.382E-01
RMM:   3    -0.909422742939E+02   -0.22984E-02   -0.25201E-02  7841   0.511E-01    0.167E-01
RMM:   4    -0.909429814426E+02   -0.70715E-03   -0.33759E-03  7995   0.170E-01    0.162E-01
RMM:   5    -0.909424639472E+02    0.51750E-03   -0.63716E-04  7743   0.680E-02    0.899E-02
RMM:   6    -0.909424787591E+02   -0.14812E-04   -0.26136E-04  6674   0.383E-02    0.290E-02
RMM:   7    -0.909424782114E+02    0.54769E-06   -0.10101E-04  5648   0.224E-02    0.174E-02
RMM:   8    -0.909424811340E+02   -0.29226E-05   -0.57025E-05  4833   0.151E-02
  35 F= -.93983377E+02 E0= -.93984922E+02  d E =-.853935E-02
       N       E                     dE             d eps       ncg     rms          rms(c)
DAV:   1    -0.909423963721E+02    0.81839E-04   -0.57806E-02  6512   0.594E-01    0.851E-02
RMM:   2    -0.909425700225E+02   -0.17365E-03   -0.19257E-03  5828   0.135E-01    0.519E-02
RMM:   3    -0.909426169613E+02   -0.46939E-04   -0.51155E-04  7249   0.717E-02    0.241E-02
RMM:   4    -0.909426326262E+02   -0.15665E-04   -0.79443E-05  5784   0.260E-02    0.230E-02
RMM:   5    -0.909426233612E+02    0.92650E-05   -0.27046E-05  4029   0.140E-02
  36 F= -.93983560E+02 E0= -.93985140E+02  d E =-.872270E-02
       N       E                     dE             d eps       ncg     rms          rms(c)
DAV:   1    -0.909457568037E+02   -0.31242E-02   -0.49196E-01  5800   0.173E+00    0.255E-01
RMM:   2    -0.909471579972E+02   -0.14012E-02   -0.15970E-02  5946   0.390E-01    0.156E-01
RMM:   3    -0.909475567053E+02   -0.39871E-03   -0.43217E-03  7743   0.208E-01    0.762E-02
RMM:   4    -0.909475911041E+02   -0.34399E-04   -0.51830E-04  7328   0.670E-02    0.390E-02
RMM:   5    -0.909476201491E+02   -0.29045E-04   -0.12381E-04  6141   0.285E-02    0.299E-02
RMM:   6    -0.909476043105E+02    0.15839E-04   -0.43129E-05  4871   0.157E-02    0.115E-02
RMM:   7    -0.909476051066E+02   -0.79610E-06   -0.24188E-05  3921   0.104E-02
  37 F= -.93988662E+02 E0= -.93990341E+02  d E =-.510165E-02
       N       E                     dE             d eps       ncg     rms          rms(c)
DAV:   1    -0.909465840927E+02    0.10202E-02   -0.22551E+00  5760   0.369E+00    0.531E-01
RMM:   2    -0.909530823776E+02   -0.64983E-02   -0.74012E-02  6055   0.837E-01    0.320E-01
RMM:   3    -0.909549475341E+02   -0.18652E-02   -0.20140E-02  7945   0.448E-01    0.165E-01
RMM:   4    -0.909551416886E+02   -0.19415E-03   -0.23887E-03  7815   0.142E-01    0.949E-02
RMM:   5    -0.909553175208E+02   -0.17583E-03   -0.56305E-04  7714   0.600E-02    0.918E-02
RMM:   6    -0.909551457325E+02    0.17179E-03   -0.18657E-04  6343   0.325E-02    0.306E-02
RMM:   7    -0.909551483377E+02   -0.26052E-05   -0.92240E-05  5437   0.206E-02
  38 F= -.93996495E+02 E0= -.93998360E+02  d E =-.129345E-01
       N       E                     dE             d eps       ncg     rms          rms(c)
DAV:   1    -0.909230295462E+02    0.32116E-01   -0.90118E+00  5760   0.738E+00    0.101E+00
RMM:   2    -0.909492827610E+02   -0.26253E-01   -0.30053E-01  6089   0.168E+00    0.596E-01
RMM:   3    -0.909571637762E+02   -0.78810E-02   -0.83970E-02  8096   0.923E-01    0.344E-01
RMM:   4    -0.909586298410E+02   -0.14661E-02   -0.10388E-02  7974   0.295E-01    0.271E-01
RMM:   5    -0.909581758507E+02    0.45399E-03   -0.22158E-03  8095   0.125E-01    0.188E-01
RMM:   6    -0.909578555206E+02    0.32033E-03   -0.10013E-03  7700   0.715E-02    0.745E-02
RMM:   7    -0.909578379998E+02    0.17521E-04   -0.36693E-04  6495   0.443E-02    0.287E-02
RMM:   8    -0.909578550372E+02   -0.17037E-04   -0.20776E-04  5810   0.280E-02    0.162E-02
RMM:   9    -0.909578645131E+02   -0.94759E-05   -0.91690E-05  5143   0.183E-02
  39 F= -.93999925E+02 E0= -.94002048E+02  d E =-.163643E-01
       N       E                     dE             d eps       ncg     rms          rms(c)
DAV:   1    -0.909556947484E+02    0.21603E-02   -0.82460E-01  5824   0.222E+00    0.282E-01
RMM:   2    -0.909580194596E+02   -0.23247E-02   -0.26703E-02  5979   0.503E-01    0.173E-01
RMM:   3    -0.909587144449E+02   -0.69499E-03   -0.73001E-03  7732   0.269E-01    0.101E-01
RMM:   4    -0.909587888643E+02   -0.74419E-04   -0.84001E-04  7512   0.856E-02    0.674E-02
RMM:   5    -0.909588237531E+02   -0.34889E-04   -0.16265E-04  6624   0.349E-02    0.494E-02
RMM:   6    -0.909587772949E+02    0.46458E-04   -0.62354E-05  5423   0.196E-02    0.239E-02
RMM:   7    -0.909587719183E+02    0.53767E-05   -0.24141E-05  4236   0.128E-02
  40 F= -.94000597E+02 E0= -.94002658E+02  d E =-.170367E-01
       N       E                     dE             d eps       ncg     rms          rms(c)
DAV:   1    -0.909630087475E+02   -0.42315E-02   -0.98918E-01  5840   0.242E+00    0.232E-01
RMM:   2    -0.909650472913E+02   -0.20385E-02   -0.23240E-02  6009   0.493E-01    0.138E-01
RMM:   3    -0.909657530183E+02   -0.70573E-03   -0.71448E-03  7696   0.267E-01    0.895E-02
RMM:   4    -0.909658492983E+02   -0.96280E-04   -0.89311E-04  7616   0.866E-02    0.893E-02
RMM:   5    -0.909657504563E+02    0.98842E-04   -0.16844E-04  6742   0.352E-02    0.529E-02
RMM:   6    -0.909657545355E+02   -0.40791E-05   -0.84621E-05  5269   0.210E-02
  41 F= -.94007729E+02 E0= -.94009870E+02  d E =-.713153E-02
       N       E                     dE             d eps       ncg     rms          rms(c)
DAV:   1    -0.909649417713E+02    0.80869E-03   -0.88959E+00  5696   0.729E+00    0.711E-01
RMM:   2    -0.909836271897E+02   -0.18685E-01   -0.21424E-01  6071   0.150E+00    0.408E-01
RMM:   3    -0.909899668315E+02   -0.63396E-02   -0.66447E-02  7962   0.820E-01    0.260E-01
RMM:   4    -0.909911398161E+02   -0.11730E-02   -0.84111E-03  8220   0.269E-01    0.260E-01
RMM:   5    -0.909902497171E+02    0.89010E-03   -0.15678E-03  8087   0.107E-01    0.158E-01
RMM:   6    -0.909903107347E+02   -0.61018E-04   -0.81068E-04  7499   0.625E-02    0.618E-02
RMM:   7    -0.909902916616E+02    0.19073E-04   -0.31174E-04  6171   0.388E-02    0.474E-02
RMM:   8    -0.909902946741E+02   -0.30124E-05   -0.15108E-04  5517   0.238E-02    0.177E-02
RMM:   9    -0.909903015527E+02   -0.68786E-05   -0.78931E-05  4827   0.165E-02
  42 F= -.94032809E+02 E0= -.94035118E+02  d E =-.322122E-01
       N       E                     dE             d eps       ncg     rms          rms(c)
DAV:   1    -0.909443824303E+02    0.45912E-01   -0.35519E+01  5656   0.146E+01    0.145E+00
RMM:   2    -0.910228982247E+02   -0.78516E-01   -0.89643E-01  6130   0.310E+00    0.764E-01
RMM:   3    -0.910492194803E+02   -0.26321E-01   -0.28637E-01  8036   0.173E+00    0.510E-01
RMM:   4    -0.910537424084E+02   -0.45229E-02   -0.35834E-02  8352   0.567E-01    0.476E-01
RMM:   5    -0.910517459911E+02    0.19964E-02   -0.59892E-03  8394   0.213E-01    0.351E-01
RMM:   6    -0.910517697785E+02   -0.23787E-04   -0.30200E-03  8007   0.123E-01    0.148E-01
RMM:   7    -0.910517766015E+02   -0.68230E-05   -0.12810E-03  6763   0.908E-02    0.109E-01
RMM:   8    -0.910517644685E+02    0.12133E-04   -0.58307E-04  7261   0.499E-02    0.351E-02
RMM:   9    -0.910517953053E+02   -0.30837E-04   -0.31379E-04  5985   0.317E-02    0.445E-02
RMM:  10    -0.910518098021E+02   -0.14497E-04   -0.16683E-04  5721   0.286E-02    0.297E-02
RMM:  11    -0.910518189591E+02   -0.91569E-05   -0.79703E-05  4934   0.155E-02
  43 F= -.94095784E+02 E0= -.94098060E+02  d E =-.951865E-01
       N       E                     dE             d eps       ncg     rms          rms(c)
DAV:   1    -0.906470239402E+02    0.40479E+00   -0.14191E+02  5608   0.301E+01    0.342E+00
RMM:   2    -0.910143919718E+02   -0.36737E+00   -0.42336E+00  6170   0.669E+00    0.141E+00
RMM:   3    -0.911351867471E+02   -0.12079E+00   -0.13281E+00  8029   0.383E+00    0.111E+00
RMM:   4    -0.911504014018E+02   -0.15215E-01   -0.17774E-01  8101   0.118E+00    0.121E+00
RMM:   5    -0.911498203678E+02    0.58103E-03   -0.26951E-02  8613   0.463E-01    0.910E-01
RMM:   6    -0.911472138581E+02    0.26065E-02   -0.14366E-02  7903   0.278E-01    0.388E-01
RMM:   7    -0.911473850659E+02   -0.17121E-03   -0.63828E-03  6991   0.207E-01    0.388E-01
RMM:   8    -0.911468587758E+02    0.52629E-03   -0.27971E-03  7076   0.142E-01    0.186E-01
RMM:   9    -0.911468937207E+02   -0.34945E-04   -0.21662E-03  8259   0.933E-02    0.116E-01
RMM:  10    -0.911469326532E+02   -0.38933E-04   -0.52367E-04  7068   0.490E-02    0.221E-02
RMM:  11    -0.911469844489E+02   -0.51796E-04   -0.42186E-04  6395   0.361E-02    0.533E-02
RMM:  12    -0.911470010616E+02   -0.16613E-04   -0.21804E-04  5721   0.284E-02    0.181E-02
RMM:  13    -0.911470150690E+02   -0.14007E-04   -0.11464E-04  5196   0.180E-02    0.906E-03
RMM:  14    -0.911470261851E+02   -0.11116E-04   -0.71245E-05  4805   0.136E-02    0.271E-03
RMM:  15    -0.911470328177E+02   -0.66327E-05   -0.44753E-05  4457   0.118E-02
  44 F= -.94195498E+02 E0= -.94196375E+02  d E =-.194901E+00
       N       E                     dE             d eps       ncg     rms          rms(c)
DAV:   1    -0.911315372443E+02    0.15489E-01   -0.45341E+00  6120   0.530E+00    0.475E-01
RMM:   2    -0.911418845243E+02   -0.10347E-01   -0.11989E-01  6034   0.111E+00    0.235E-01
RMM:   3    -0.911451389693E+02   -0.32544E-02   -0.34645E-02  7984   0.600E-01    0.181E-01
RMM:   4    -0.911454789444E+02   -0.33998E-03   -0.46647E-03  8002   0.198E-01    0.170E-01
RMM:   5    -0.911454781194E+02    0.82505E-06   -0.86737E-04  8115   0.803E-02    0.140E-01
RMM:   6    -0.911453884101E+02    0.89709E-04   -0.38377E-04  7022   0.454E-02    0.602E-02
RMM:   7    -0.911454074107E+02   -0.19001E-04   -0.19983E-04  5894   0.322E-02    0.458E-02
RMM:   8    -0.911454038214E+02    0.35893E-05   -0.98454E-05  5363   0.199E-02
  45 F= -.94194911E+02 E0= -.94195396E+02  d E =-.194314E+00
       N       E                     dE             d eps       ncg     rms          rms(c)
DAV:   1    -0.911427063621E+02    0.27010E-02   -0.15936E+00  5976   0.314E+00    0.271E-01
RMM:   2    -0.911462074267E+02   -0.35011E-02   -0.40547E-02  5990   0.656E-01    0.138E-01
RMM:   3    -0.911473640473E+02   -0.11566E-02   -0.12307E-02  7835   0.355E-01    0.102E-01
RMM:   4    -0.911474623570E+02   -0.98310E-04   -0.15304E-03  7701   0.116E-01    0.928E-02
RMM:   5    -0.911474946011E+02   -0.32244E-04   -0.26910E-04  7374   0.467E-02    0.795E-02
RMM:   6    -0.911474482340E+02    0.46367E-04   -0.97039E-05  5939   0.256E-02    0.350E-02
RMM:   7    -0.911474504884E+02   -0.22544E-05   -0.63736E-05  5078   0.199E-02
  46 F= -.94196331E+02 E0= -.94197055E+02  d E =-.195734E+00
       N       E                     dE             d eps       ncg     rms          rms(c)
DAV:   1    -0.911499537928E+02   -0.25056E-02   -0.14137E-01  6344   0.923E-01    0.664E-02
RMM:   2    -0.911502407500E+02   -0.28696E-03   -0.31956E-03  5742   0.185E-01    0.352E-02
RMM:   3    -0.911503301144E+02   -0.89364E-04   -0.96548E-04  7260   0.100E-01    0.286E-02
RMM:   4    -0.911503386424E+02   -0.85280E-05   -0.11578E-04  5954   0.332E-02    0.282E-02
RMM:   5    -0.911503415500E+02   -0.29076E-05   -0.25148E-05  4160   0.164E-02
  47 F= -.94199393E+02 E0= -.94200040E+02  d E =-.306251E-02
       N       E                     dE             d eps       ncg     rms          rms(c)
DAV:   1    -0.911540801938E+02   -0.37416E-02   -0.12740E+00  5816   0.278E+00    0.228E-01
RMM:   2    -0.911566888806E+02   -0.26087E-02   -0.29991E-02  6014   0.562E-01    0.116E-01
RMM:   3    -0.911575372660E+02   -0.84839E-03   -0.90024E-03  7851   0.302E-01    0.869E-02
RMM:   4    -0.911576196783E+02   -0.82412E-04   -0.11114E-03  7734   0.992E-02    0.790E-02
RMM:   5    -0.911576409865E+02   -0.21308E-04   -0.20768E-04  7155   0.407E-02    0.662E-02
RMM:   6    -0.911576160034E+02    0.24983E-04   -0.93262E-05  5663   0.227E-02    0.321E-02
RMM:   7    -0.911576179849E+02   -0.19815E-05   -0.55873E-05  5024   0.180E-02
  48 F= -.94207196E+02 E0= -.94207637E+02  d E =-.108648E-01
       N       E                     dE             d eps       ncg     rms          rms(c)
DAV:   1    -0.911505824917E+02    0.70335E-02   -0.50955E+00  5648   0.557E+00    0.476E-01
RMM:   2    -0.911612563296E+02   -0.10674E-01   -0.12316E-01  6043   0.113E+00    0.228E-01
RMM:   3    -0.911646533034E+02   -0.33970E-02   -0.36229E-02  8013   0.612E-01    0.172E-01
RMM:   4    -0.911650001029E+02   -0.34680E-03   -0.46490E-03  8025   0.198E-01    0.163E-01
RMM:   5    -0.911650875649E+02   -0.87462E-04   -0.86068E-04  8131   0.797E-02    0.132E-01
RMM:   6    -0.911649686288E+02    0.11894E-03   -0.33062E-04  7063   0.436E-02    0.637E-02
RMM:   7    -0.911649838324E+02   -0.15204E-04   -0.20642E-04  5988   0.324E-02    0.441E-02
RMM:   8    -0.911649856676E+02   -0.18352E-05   -0.78774E-05  5445   0.189E-02
  49 F= -.94215667E+02 E0= -.94215663E+02  d E =-.193365E-01
       N       E                     dE             d eps       ncg     rms          rms(c)
DAV:   1    -0.911754357141E+02   -0.10452E-01   -0.40675E-02  6096   0.379E-01    0.463E-02
RMM:   2    -0.911754828337E+02   -0.47120E-04   -0.74937E-04  5677   0.614E-02    0.268E-02
RMM:   3    -0.911754918848E+02   -0.90511E-05   -0.16092E-04  5766   0.321E-02    0.232E-02
RMM:   4    -0.911754857108E+02    0.61740E-05   -0.40245E-05  4063   0.147E-02
  50 F= -.94226191E+02 E0= -.94226161E+02  d E =-.105240E-01
       N       E                     dE             d eps       ncg     rms          rms(c)
DAV:   1    -0.912058876695E+02   -0.30396E-01   -0.36326E-01  5624   0.113E+00    0.139E-01
RMM:   2    -0.912062767564E+02   -0.38909E-03   -0.61141E-03  5783   0.177E-01    0.841E-02
RMM:   3    -0.912063267181E+02   -0.49962E-04   -0.13730E-03  7344   0.936E-02    0.803E-02
RMM:   4    -0.912062357449E+02    0.90973E-04   -0.20706E-04  5932   0.341E-02    0.495E-02
RMM:   5    -0.912062330515E+02    0.26934E-05   -0.82722E-05  4684   0.187E-02
  51 F= -.94257012E+02 E0= -.94256934E+02  d E =-.413452E-01
       N       E                     dE             d eps       ncg     rms          rms(c)
DAV:   1    -0.912628145295E+02   -0.56579E-01   -0.14454E+00  5448   0.225E+00    0.274E-01
RMM:   2    -0.912643022707E+02   -0.14877E-02   -0.23434E-02  5911   0.352E-01    0.147E-01
RMM:   3    -0.912646820095E+02   -0.37974E-03   -0.54089E-03  7643   0.189E-01    0.152E-01
RMM:   4    -0.912643284775E+02    0.35353E-03   -0.81228E-04  7238   0.666E-02    0.912E-02
RMM:   5    -0.912643195121E+02    0.89654E-05   -0.29753E-04  5705   0.332E-02    0.659E-02
RMM:   6    -0.912642856023E+02    0.33910E-04   -0.20858E-04  5016   0.241E-02    0.184E-02
RMM:   7    -0.912642925965E+02   -0.69942E-05   -0.80101E-05  4635   0.146E-02
  52 F= -.94315227E+02 E0= -.94315032E+02  d E =-.995593E-01
       N       E                     dE             d eps       ncg     rms          rms(c)
DAV:   1    -0.913594300319E+02   -0.95144E-01   -0.57933E+00  5440   0.452E+00    0.543E-01
RMM:   2    -0.913657063593E+02   -0.62763E-02   -0.91550E-02  5936   0.703E-01    0.256E-01
RMM:   3    -0.913681153550E+02   -0.24090E-02   -0.21253E-02  7762   0.372E-01    0.309E-01
RMM:   4    -0.913664523938E+02    0.16630E-02   -0.30014E-03  7613   0.131E-01    0.171E-01
RMM:   5    -0.913664287197E+02    0.23674E-04   -0.11767E-03  7370   0.650E-02    0.121E-01
RMM:   6    -0.913663070605E+02    0.12166E-03   -0.63683E-04  5572   0.423E-02    0.382E-02
RMM:   7    -0.913663227152E+02   -0.15655E-04   -0.28589E-04  5303   0.263E-02    0.123E-02
RMM:   8    -0.913663449103E+02   -0.22195E-04   -0.12395E-04  4562   0.164E-02    0.764E-03
RMM:   9    -0.913663647085E+02   -0.19798E-04   -0.86090E-05  4229   0.119E-02    0.455E-03
RMM:  10    -0.913663878316E+02   -0.23123E-04   -0.46577E-05  4042   0.925E-03    0.191E-03
RMM:  11    -0.913664054053E+02   -0.17574E-04   -0.32634E-05  3756   0.757E-03    0.123E-03
RMM:  12    -0.913664229441E+02   -0.17539E-04   -0.23204E-05  3560   0.640E-03    0.764E-04
RMM:  13    -0.913664317014E+02   -0.87572E-05   -0.15495E-05  2906   0.524E-03
  53 F= -.94417693E+02 E0= -.94417333E+02  d E =-.202025E+00
       N       E                     dE             d eps       ncg     rms          rms(c)
DAV:   1    -0.914764656175E+02   -0.11004E+00   -0.22870E+01  5448   0.905E+00    0.122E+00
RMM:   2    -0.915074255676E+02   -0.30960E-01   -0.38436E-01  5923   0.143E+00    0.511E-01
RMM:   3    -0.915181703146E+02   -0.10745E-01   -0.82472E-02  7767   0.755E-01    0.589E-01
RMM:   4    -0.915119314145E+02    0.62389E-02   -0.11979E-02  7803   0.261E-01    0.336E-01
RMM:   5    -0.915115145184E+02    0.41690E-03   -0.37208E-03  8072   0.125E-01    0.177E-01
RMM:   6    -0.915113513786E+02    0.16314E-03   -0.22326E-03  7215   0.782E-02    0.569E-02
RMM:   7    -0.915113825794E+02   -0.31201E-04   -0.75122E-04  5943   0.431E-02    0.344E-02
RMM:   8    -0.915114132099E+02   -0.30631E-04   -0.36787E-04  5279   0.278E-02    0.207E-02
RMM:   9    -0.915114490809E+02   -0.35871E-04   -0.23744E-04  4863   0.188E-02    0.141E-02
RMM:  10    -0.915114808715E+02   -0.31791E-04   -0.12683E-04  4574   0.143E-02    0.633E-03
RMM:  11    -0.915115238827E+02   -0.43011E-04   -0.86014E-05  4349   0.109E-02    0.421E-03
RMM:  12    -0.915115518882E+02   -0.28006E-04   -0.55536E-05  4009   0.847E-03    0.275E-03
RMM:  13    -0.915115884542E+02   -0.36566E-04   -0.39964E-05  3718   0.726E-03    0.122E-03
RMM:  14    -0.915116024204E+02   -0.13966E-04   -0.25190E-05  2862   0.584E-03    0.842E-04
RMM:  15    -0.915116141343E+02   -0.11714E-04   -0.18089E-05  2694   0.552E-03    0.640E-04
RMM:  16    -0.915116188619E+02   -0.47276E-05   -0.14667E-05  2232   0.490E-03
  54 F= -.94563542E+02 E0= -.94562953E+02  d E =-.347875E+00
       N       E                     dE             d eps       ncg     rms          rms(c)
DAV:   1    -0.913716166576E+02    0.14000E+00   -0.87748E+01  5440   0.181E+01    0.350E+00
RMM:   2    -0.915551081703E+02   -0.18349E+00   -0.20445E+00  5960   0.313E+00    0.147E+00
RMM:   3    -0.915775802292E+02   -0.22472E-01   -0.34884E-01  7740   0.157E+00    0.112E+00
RMM:   4    -0.915891354636E+02   -0.11555E-01   -0.55330E-02  7621   0.540E-01    0.913E-01
RMM:   5    -0.915714347183E+02    0.17701E-01   -0.13239E-02  7579   0.262E-01    0.468E-01
RMM:   6    -0.915709741838E+02    0.46053E-03   -0.13520E-02  7625   0.194E-01    0.149E-01
RMM:   7    -0.915710283468E+02   -0.54163E-04   -0.23939E-03  8083   0.907E-02    0.929E-02
RMM:   8    -0.915710631222E+02   -0.34775E-04   -0.12526E-03  6352   0.519E-02    0.372E-02
RMM:   9    -0.915711514006E+02   -0.88278E-04   -0.68015E-04  5661   0.334E-02    0.346E-02
RMM:  10    -0.915712263197E+02   -0.74919E-04   -0.40376E-04  5423   0.255E-02    0.132E-02
RMM:  11    -0.915713207904E+02   -0.94471E-04   -0.28550E-04  4984   0.184E-02    0.104E-02
RMM:  12    -0.915714004959E+02   -0.79705E-04   -0.15114E-04  4779   0.139E-02    0.356E-03
RMM:  13    -0.915715060271E+02   -0.10553E-03   -0.12020E-04  4489   0.109E-02    0.303E-03
RMM:  14    -0.915715656499E+02   -0.59623E-04   -0.73922E-05  3971   0.845E-03    0.104E-03
RMM:  15    -0.915715955300E+02   -0.29880E-04   -0.42044E-05  3358   0.693E-03    0.937E-04
RMM:  16    -0.915716077307E+02   -0.12201E-04   -0.32888E-05  2816   0.603E-03    0.115E-03
RMM:  17    -0.915716115811E+02   -0.38504E-05   -0.19967E-05  2492   0.549E-03
  55 F= -.94624578E+02 E0= -.94623598E+02  d E =-.408911E+00
       N       E                     dE             d eps       ncg     rms          rms(c)
DAV:   1    -0.916044477066E+02   -0.32840E-01   -0.79433E-01  6048   0.166E+00    0.278E-01
RMM:   2    -0.916053725555E+02   -0.92485E-03   -0.11667E-02  5754   0.250E-01    0.169E-01
RMM:   3    -0.916055526638E+02   -0.18011E-03   -0.24472E-03  7393   0.129E-01    0.725E-02
RMM:   4    -0.916056111569E+02   -0.58493E-04   -0.51719E-04  6303   0.494E-02    0.386E-02
RMM:   5    -0.916055942777E+02    0.16879E-04   -0.13929E-04  5046   0.237E-02    0.271E-02
RMM:   6    -0.916055886494E+02    0.56283E-05   -0.63681E-05  4510   0.146E-02
  56 F= -.94658550E+02 E0= -.94657549E+02  d E =-.339720E-01
       N       E                     dE             d eps       ncg     rms          rms(c)
DAV:   1    -0.916766145247E+02   -0.71020E-01   -0.71426E+00  5496   0.498E+00    0.916E-01
RMM:   2    -0.916850396815E+02   -0.84252E-02   -0.11271E-01  5874   0.759E-01    0.562E-01
RMM:   3    -0.916866488925E+02   -0.16092E-02   -0.22868E-02  7848   0.389E-01    0.247E-01
RMM:   4    -0.916867452667E+02   -0.96374E-04   -0.40533E-03  7625   0.138E-01    0.993E-02
RMM:   5    -0.916868119022E+02   -0.66636E-04   -0.10340E-03  6959   0.594E-02    0.546E-02
RMM:   6    -0.916868444893E+02   -0.32587E-04   -0.39963E-04  5679   0.333E-02    0.416E-02
RMM:   7    -0.916868160372E+02    0.28452E-04   -0.21520E-04  5140   0.229E-02    0.161E-02
RMM:   8    -0.916868369518E+02   -0.20915E-04   -0.12973E-04  4644   0.159E-02    0.729E-03
RMM:   9    -0.916868591146E+02   -0.22163E-04   -0.75945E-05  4299   0.114E-02    0.441E-03
RMM:  10    -0.916868959888E+02   -0.36874E-04   -0.43538E-05  4154   0.909E-03    0.270E-03
RMM:  11    -0.916869081617E+02   -0.12173E-04   -0.27196E-05  3576   0.693E-03    0.158E-03
RMM:  12    -0.916869375000E+02   -0.29338E-04   -0.23532E-05  3551   0.628E-03    0.122E-03
RMM:  13    -0.916869474450E+02   -0.99451E-05   -0.13839E-05  2562   0.487E-03
  57 F= -.94739857E+02 E0= -.94738808E+02  d E =-.115279E+00
       N       E                     dE             d eps       ncg     rms          rms(c)
DAV:   1    -0.916853241063E+02    0.16134E-02   -0.28487E+01  5472   0.989E+00    0.222E+00
RMM:   2    -0.917190785052E+02   -0.33754E-01   -0.51295E-01  5914   0.155E+00    0.134E+00
RMM:   3    -0.917265575109E+02   -0.74790E-02   -0.10319E-01  8046   0.791E-01    0.606E-01
RMM:   4    -0.917304359779E+02   -0.38785E-02   -0.15748E-02  7764   0.284E-01    0.448E-01
RMM:   5    -0.917264852422E+02    0.39507E-02   -0.48461E-03  7059   0.147E-01    0.213E-01
RMM:   6    -0.917258750031E+02    0.61024E-03   -0.19123E-03  7883   0.856E-02    0.792E-02
RMM:   7    -0.917259216278E+02   -0.46625E-04   -0.86918E-04  6414   0.473E-02    0.364E-02
RMM:   8    -0.917259565484E+02   -0.34921E-04   -0.38876E-04  5483   0.303E-02    0.180E-02
RMM:   9    -0.917260113138E+02   -0.54765E-04   -0.25502E-04  5052   0.211E-02    0.847E-03
RMM:  10    -0.917260759276E+02   -0.64614E-04   -0.13205E-04  4735   0.156E-02    0.436E-03
RMM:  11    -0.917261192247E+02   -0.43297E-04   -0.91091E-05  4397   0.114E-02    0.306E-03
RMM:  12    -0.917261885343E+02   -0.69310E-04   -0.61321E-05  4394   0.910E-03    0.208E-03
RMM:  13    -0.917262096373E+02   -0.21103E-04   -0.35285E-05  3648   0.666E-03    0.129E-03
RMM:  14    -0.917262327168E+02   -0.23079E-04   -0.24686E-05  3090   0.581E-03    0.656E-04
RMM:  15    -0.917262439374E+02   -0.11221E-04   -0.17301E-05  2390   0.510E-03    0.674E-04
RMM:  16    -0.917262514576E+02   -0.75202E-05   -0.12812E-05  2209   0.480E-03
  58 F= -.94778890E+02 E0= -.94777745E+02  d E =-.154312E+00
       N       E                     dE             d eps       ncg     rms          rms(c)
DAV:   1    -0.917308663448E+02   -0.46224E-02   -0.28880E+00  5664   0.307E+00    0.678E-01
RMM:   2    -0.917335647213E+02   -0.26984E-02   -0.41038E-02  5853   0.475E-01    0.420E-01
RMM:   3    -0.917341324864E+02   -0.56777E-03   -0.88915E-03  7636   0.248E-01    0.120E-01
RMM:   4    -0.917346211624E+02   -0.48868E-03   -0.17797E-03  7478   0.927E-02    0.112E-01
RMM:   5    -0.917342133460E+02    0.40782E-03   -0.44700E-04  6516   0.444E-02    0.532E-02
RMM:   6    -0.917342314242E+02   -0.18078E-04   -0.19268E-04  5285   0.248E-02    0.323E-02
RMM:   7    -0.917342581513E+02   -0.26727E-04   -0.10071E-04  4775   0.176E-02    0.149E-02
RMM:   8    -0.917342678781E+02   -0.97268E-05   -0.47463E-05  4240   0.113E-02
  59 F= -.94787015E+02 E0= -.94785898E+02  d E =-.162437E+00
       N       E                     dE             d eps       ncg     rms          rms(c)
DAV:   1    -0.917827668479E+02   -0.48509E-01   -0.27575E-01  5840   0.981E-01    0.151E-01
RMM:   2    -0.917832289624E+02   -0.46211E-03   -0.67345E-03  5832   0.170E-01    0.729E-02
RMM:   3    -0.917833024570E+02   -0.73495E-04   -0.12980E-03  7309   0.851E-02    0.479E-02
RMM:   4    -0.917833292351E+02   -0.26778E-04   -0.16403E-04  5635   0.315E-02    0.369E-02
RMM:   5    -0.917833109843E+02    0.18251E-04   -0.51859E-05  4856   0.177E-02    0.188E-02
RMM:   6    -0.917833129347E+02   -0.19504E-05   -0.21198E-05  4228   0.108E-02
  60 F= -.94835998E+02 E0= -.94834925E+02  d E =-.489830E-01
       N       E                     dE             d eps       ncg     rms          rms(c)
DAV:   1    -0.919043395050E+02   -0.12103E+00   -0.25075E+00  5472   0.296E+00    0.451E-01
RMM:   2    -0.919084354338E+02   -0.40959E-02   -0.61101E-02  6052   0.510E-01    0.223E-01
RMM:   3    -0.919089469906E+02   -0.51156E-03   -0.11542E-02  7910   0.255E-01    0.135E-01
[...]
RMM:   4    -0.928830961395E+02   -0.99124E-04   -0.10343E-03  7460   0.841E-02    0.649E-02
RMM:   5    -0.928831006949E+02   -0.45554E-05   -0.26153E-04  6226   0.341E-02    0.536E-02
RMM:   6    -0.928831062195E+02   -0.55246E-05   -0.11415E-04  5061   0.208E-02    0.243E-02
RMM:   7    -0.928831101179E+02   -0.38984E-05   -0.68608E-05  4411   0.140E-02
 121 F= -.95947122E+02 E0= -.95949234E+02  d E =-.391117E-02
       N       E                     dE             d eps       ncg     rms          rms(c)
DAV:   1    -0.928834883026E+02   -0.38208E-03   -0.30802E-01  6064   0.119E+00    0.297E-01
RMM:   2    -0.928838341630E+02   -0.34586E-03   -0.45337E-03  5872   0.205E-01    0.153E-01
RMM:   3    -0.928839155713E+02   -0.81408E-04   -0.13774E-03  7311   0.113E-01    0.315E-02
RMM:   4    -0.928839389660E+02   -0.23395E-04   -0.23412E-04  6313   0.392E-02    0.312E-02
RMM:   5    -0.928839406862E+02   -0.17202E-05   -0.73611E-05  4584   0.204E-02
 122 F= -.95947404E+02 E0= -.95949511E+02  d E =-.419340E-02
       N       E                     dE             d eps       ncg     rms          rms(c)
DAV:   1    -0.928856673010E+02   -0.17283E-02   -0.27803E-01  5888   0.117E+00    0.152E-01
RMM:   2    -0.928861304044E+02   -0.46310E-03   -0.59815E-03  5925   0.220E-01    0.664E-02
RMM:   3    -0.928862585195E+02   -0.12812E-03   -0.15454E-03  7541   0.117E-01    0.380E-02
RMM:   4    -0.928862886660E+02   -0.30146E-04   -0.24878E-04  6522   0.417E-02    0.417E-02
RMM:   5    -0.928862791136E+02    0.95524E-05   -0.71818E-05  4979   0.211E-02
 123 F= -.95949028E+02 E0= -.95951163E+02  d E =-.162433E-02
       N       E                     dE             d eps       ncg     rms          rms(c)
DAV:   1    -0.928863650123E+02   -0.76346E-04   -0.13924E+00  5760   0.262E+00    0.335E-01
RMM:   2    -0.928886501669E+02   -0.22852E-02   -0.29664E-02  6155   0.488E-01    0.149E-01
RMM:   3    -0.928893796617E+02   -0.72949E-03   -0.76032E-03  8024   0.263E-01    0.984E-02
RMM:   4    -0.928893933084E+02   -0.13647E-04   -0.11777E-03  7663   0.902E-02    0.968E-02
RMM:   5    -0.928893494327E+02    0.43876E-04   -0.26446E-04  6972   0.392E-02    0.609E-02
RMM:   6    -0.928893613109E+02   -0.11878E-04   -0.18800E-04  5762   0.264E-02    0.344E-02
RMM:   7    -0.928893647804E+02   -0.34695E-05   -0.76341E-05  4772   0.164E-02
 124 F= -.95950517E+02 E0= -.95952708E+02  d E =-.311365E-02
       N       E                     dE             d eps       ncg     rms          rms(c)
DAV:   1    -0.928902945077E+02   -0.93320E-03   -0.47460E-02  6376   0.504E-01    0.513E-02
RMM:   2    -0.928904026398E+02   -0.10813E-03   -0.12456E-03  5883   0.101E-01    0.293E-02
RMM:   3    -0.928904400928E+02   -0.37453E-04   -0.32377E-04  7003   0.541E-02    0.254E-02
RMM:   4    -0.928904391990E+02    0.89388E-06   -0.66559E-05  5065   0.221E-02
 125 F= -.95951272E+02 E0= -.95953486E+02  d E =-.754789E-03
       N       E                     dE             d eps       ncg     rms          rms(c)
DAV:   1    -0.928921825857E+02   -0.17425E-02   -0.42275E-01  5776   0.150E+00    0.148E-01
RMM:   2    -0.928930907908E+02   -0.90821E-03   -0.10474E-02  6050   0.296E-01    0.874E-02
RMM:   3    -0.928933898763E+02   -0.29909E-03   -0.27171E-03  7829   0.159E-01    0.761E-02
RMM:   4    -0.928933681487E+02    0.21728E-04   -0.41846E-04  7166   0.563E-02    0.688E-02
RMM:   5    -0.928933600711E+02    0.80776E-05   -0.10206E-04  5976   0.261E-02    0.427E-02
RMM:   6    -0.928933661434E+02   -0.60723E-05   -0.70397E-05  4747   0.173E-02
 126 F= -.95953241E+02 E0= -.95955489E+02  d E =-.272410E-02
       N       E                     dE             d eps       ncg     rms          rms(c)
DAV:   1    -0.928931993328E+02    0.16074E-03   -0.16913E+00  5760   0.300E+00    0.297E-01
RMM:   2    -0.928968516114E+02   -0.36523E-02   -0.42063E-02  6185   0.593E-01    0.165E-01
RMM:   3    -0.928980948687E+02   -0.12433E-02   -0.10862E-02  8184   0.320E-01    0.148E-01
RMM:   4    -0.928979572756E+02    0.13759E-03   -0.15896E-03  7781   0.110E-01    0.131E-01
RMM:   5    -0.928979312990E+02    0.25977E-04   -0.36717E-04  7383   0.480E-02    0.814E-02
RMM:   6    -0.928979485584E+02   -0.17259E-04   -0.24009E-04  6115   0.307E-02    0.309E-02
RMM:   7    -0.928979545353E+02   -0.59769E-05   -0.94962E-05  5241   0.189E-02
 127 F= -.95955920E+02 E0= -.95958253E+02  d E =-.540308E-02
       N       E                     dE             d eps       ncg     rms          rms(c)
DAV:   1    -0.928829705230E+02    0.14978E-01   -0.67662E+00  5760   0.600E+00    0.593E-01
RMM:   2    -0.928975947347E+02   -0.14624E-01   -0.16810E-01  6173   0.119E+00    0.325E-01
RMM:   3    -0.929025594219E+02   -0.49647E-02   -0.43973E-02  8323   0.655E-01    0.298E-01
RMM:   4    -0.929020222261E+02    0.53720E-03   -0.62746E-03  8111   0.219E-01    0.269E-01
RMM:   5    -0.929019213190E+02    0.10091E-03   -0.14398E-03  8172   0.949E-02    0.170E-01
RMM:   6    -0.929019870035E+02   -0.65685E-04   -0.10025E-03  7227   0.609E-02    0.723E-02
RMM:   7    -0.929019958753E+02   -0.88718E-05   -0.35222E-04  6201   0.357E-02    0.319E-02
RMM:   8    -0.929020057545E+02   -0.98792E-05   -0.17188E-04  5799   0.228E-02    0.136E-02
RMM:   9    -0.929020175056E+02   -0.11751E-04   -0.96596E-05  5134   0.156E-02    0.110E-02
RMM:  10    -0.929020310067E+02   -0.13501E-04   -0.58827E-05  4801   0.126E-02    0.120E-02
RMM:  11    -0.929020384072E+02   -0.74005E-05   -0.39102E-05  4413   0.103E-02
 128 F= -.95956210E+02 E0= -.95958692E+02  d E =-.569266E-02
       N       E                     dE             d eps       ncg     rms          rms(c)
DAV:   1    -0.928966742508E+02    0.53568E-02   -0.15255E+00  5760   0.285E+00    0.280E-01
RMM:   2    -0.928999534038E+02   -0.32792E-02   -0.37655E-02  6168   0.563E-01    0.156E-01
RMM:   3    -0.929010669932E+02   -0.11136E-02   -0.10017E-02  7868   0.303E-01    0.139E-01
RMM:   4    -0.929009910511E+02    0.75942E-04   -0.13874E-03  7622   0.103E-01    0.122E-01
RMM:   5    -0.929009606900E+02    0.30361E-04   -0.27586E-04  7275   0.448E-02    0.790E-02
RMM:   6    -0.929009775668E+02   -0.16877E-04   -0.18990E-04  6017   0.284E-02    0.291E-02
RMM:   7    -0.929009794816E+02   -0.19148E-05   -0.67264E-05  4940   0.180E-02
 129 F= -.95956950E+02 E0= -.95959361E+02  d E =-.643271E-02
       N       E                     dE             d eps       ncg     rms          rms(c)
DAV:   1    -0.929011116480E+02   -0.13408E-03   -0.11244E-02  6424   0.244E-01    0.219E-02
RMM:   2    -0.929011333789E+02   -0.21731E-04   -0.24704E-04  5392   0.466E-02    0.133E-02
RMM:   3    -0.929011413660E+02   -0.79870E-05   -0.63473E-05  4471   0.250E-02
 130 F= -.95956957E+02 E0= -.95959366E+02  d E =-.643928E-02
       N       E                     dE             d eps       ncg     rms          rms(c)
DAV:   1    -0.929010560163E+02    0.77363E-04   -0.26237E-03  6160   0.125E-01    0.181E-02
RMM:   2    -0.929010631758E+02   -0.71595E-05   -0.81371E-05  4831   0.276E-02
 131 F= -.95956954E+02 E0= -.95959366E+02  d E =-.643648E-02
       N       E                     dE             d eps       ncg     rms          rms(c)
DAV:   1    -0.929011107265E+02   -0.54710E-04   -0.97734E-04  6160   0.784E-02    0.981E-03
RMM:   2    -0.929011191630E+02   -0.84365E-05   -0.30679E-05  4045   0.177E-02
 132 F= -.95956963E+02 E0= -.95959365E+02  d E =-.644557E-02
       N       E                     dE             d eps       ncg     rms          rms(c)
DAV:   1    -0.929010878711E+02    0.22855E-04   -0.26325E-04  6784   0.600E-02    0.516E-03
RMM:   2    -0.929010897736E+02   -0.19024E-05   -0.15216E-05  3096   0.128E-02
 133 F= -.95956957E+02 E0= -.95959370E+02  d E =-.643963E-02
       N       E                     dE             d eps       ncg     rms          rms(c)
DAV:   1    -0.929015883522E+02   -0.50048E-03   -0.22446E-02  5920   0.352E-01    0.526E-02
RMM:   2    -0.929016243614E+02   -0.36009E-04   -0.43413E-04  5660   0.709E-02    0.243E-02
RMM:   3    -0.929016403390E+02   -0.15978E-04   -0.15833E-04  6105   0.393E-02    0.111E-02
RMM:   4    -0.929016416679E+02   -0.13289E-05   -0.22522E-05  3597   0.158E-02
 134 F= -.95957284E+02 E0= -.95959705E+02  d E =-.327274E-03
       N       E                     dE             d eps       ncg     rms          rms(c)
DAV:   1    -0.929026641225E+02   -0.10238E-02   -0.20351E-01  5768   0.106E+00    0.156E-01
RMM:   2    -0.929029951263E+02   -0.33100E-03   -0.38935E-03  5919   0.210E-01    0.696E-02
RMM:   3    -0.929031674665E+02   -0.17234E-03   -0.14262E-03  7500   0.118E-01    0.478E-02
RMM:   4    -0.929031301135E+02    0.37353E-04   -0.17599E-04  6575   0.390E-02    0.359E-02
RMM:   5    -0.929031315796E+02   -0.14661E-05   -0.46245E-05  4613   0.190E-02
 135 F= -.95958101E+02 E0= -.95960552E+02  d E =-.114418E-02
       N       E                     dE             d eps       ncg     rms          rms(c)
DAV:   1    -0.929035337564E+02   -0.40364E-03   -0.81229E-01  5760   0.211E+00    0.327E-01
RMM:   2    -0.929048296669E+02   -0.12959E-02   -0.15495E-02  6017   0.420E-01    0.146E-01
RMM:   3    -0.929054753752E+02   -0.64571E-03   -0.57377E-03  7803   0.237E-01    0.847E-02
RMM:   4    -0.929053839832E+02    0.91392E-04   -0.70382E-04  7437   0.761E-02    0.677E-02
RMM:   5    -0.929053839447E+02    0.38461E-07   -0.15923E-04  6424   0.327E-02    0.513E-02
RMM:   6    -0.929053905990E+02   -0.66542E-05   -0.92552E-05  5033   0.219E-02
 136 F= -.95959018E+02 E0= -.95961523E+02  d E =-.206049E-02
       N       E                     dE             d eps       ncg     rms          rms(c)
DAV:   1    -0.929061153148E+02   -0.73137E-03   -0.52687E-02  6184   0.535E-01    0.884E-02
RMM:   2    -0.929062004030E+02   -0.85088E-04   -0.11571E-03  5964   0.105E-01    0.393E-02
RMM:   3    -0.929062347956E+02   -0.34393E-04   -0.34540E-04  7135   0.574E-02    0.190E-02
RMM:   4    -0.929062367552E+02   -0.19596E-05   -0.59597E-05  5118   0.218E-02
 137 F= -.95959507E+02 E0= -.95962036E+02  d E =-.489616E-03
       N       E                     dE             d eps       ncg     rms          rms(c)
DAV:   1    -0.929069512569E+02   -0.71646E-03   -0.33429E-01  5672   0.134E+00    0.216E-01
RMM:   2    -0.929074867804E+02   -0.53552E-03   -0.69728E-03  6036   0.260E-01    0.100E-01
RMM:   3    -0.929076831548E+02   -0.19637E-03   -0.21002E-03  7694   0.143E-01    0.520E-02
RMM:   4    -0.929076853018E+02   -0.21470E-05   -0.29537E-04  6970   0.490E-02    0.479E-02
RMM:   5    -0.929076717747E+02    0.13527E-04   -0.76364E-05  5453   0.239E-02    0.308E-02
RMM:   6    -0.929076741996E+02   -0.24248E-05   -0.43327E-05  4389   0.151E-02
 138 F= -.95960047E+02 E0= -.95962597E+02  d E =-.102975E-02
       N       E                     dE             d eps       ncg     rms          rms(c)
DAV:   1    -0.929083858616E+02   -0.71409E-03   -0.87999E-02  5728   0.724E-01    0.771E-02
RMM:   2    -0.929085776363E+02   -0.19177E-03   -0.23487E-03  5988   0.150E-01    0.317E-02
RMM:   3    -0.929086423983E+02   -0.64762E-04   -0.65041E-04  7547   0.807E-02    0.232E-02
RMM:   4    -0.929086520064E+02   -0.96081E-05   -0.97596E-05  6029   0.288E-02
 139 F= -.95960476E+02 E0= -.95963059E+02  d E =-.428936E-03
       N       E                     dE             d eps       ncg     rms          rms(c)
DAV:   1    -0.929089512487E+02   -0.30885E-03   -0.79233E-01  5672   0.217E+00    0.214E-01
RMM:   2    -0.929106895619E+02   -0.17383E-02   -0.20634E-02  6157   0.448E-01    0.935E-02
RMM:   3    -0.929112448918E+02   -0.55533E-03   -0.56966E-03  7945   0.240E-01    0.775E-02
RMM:   4    -0.929112955205E+02   -0.50629E-04   -0.80049E-04  7675   0.829E-02    0.830E-02
RMM:   5    -0.929112789047E+02    0.16616E-04   -0.18450E-04  6849   0.361E-02    0.580E-02
RMM:   6    -0.929112837398E+02   -0.48352E-05   -0.11101E-04  5572   0.228E-02    0.249E-02
RMM:   7    -0.929112870934E+02   -0.33536E-05   -0.49458E-05  4623   0.148E-02
 140 F= -.95961469E+02 E0= -.95964098E+02  d E =-.142147E-02
       N       E                     dE             d eps       ncg     rms          rms(c)
DAV:   1    -0.929059197488E+02    0.53640E-02   -0.31729E+00  5672   0.434E+00    0.451E-01
RMM:   2    -0.929128788170E+02   -0.69591E-02   -0.82817E-02  6211   0.896E-01    0.188E-01
RMM:   3    -0.929150971154E+02   -0.22183E-02   -0.22790E-02  8112   0.482E-01    0.139E-01
RMM:   4    -0.929153872641E+02   -0.29015E-03   -0.31966E-03  8026   0.164E-01    0.157E-01
RMM:   5    -0.929152819110E+02    0.10535E-03   -0.67533E-04  7972   0.684E-02    0.106E-01
RMM:   6    -0.929152929947E+02   -0.11084E-04   -0.35238E-04  6746   0.399E-02    0.383E-02
RMM:   7    -0.929153067451E+02   -0.13750E-04   -0.16753E-04  5757   0.261E-02    0.350E-02
RMM:   8    -0.929153091982E+02   -0.24531E-05   -0.76821E-05  5153   0.163E-02
 141 F= -.95962224E+02 E0= -.95964972E+02  d E =-.217676E-02
       N       E                     dE             d eps       ncg     rms          rms(c)
DAV:   1    -0.929159935375E+02   -0.68679E-03   -0.66644E-02  6328   0.641E-01    0.740E-02
RMM:   2    -0.929161644919E+02   -0.17095E-03   -0.20304E-03  6062   0.139E-01    0.425E-02
RMM:   3    -0.929162250192E+02   -0.60527E-04   -0.58511E-04  7573   0.755E-02    0.286E-02
RMM:   4    -0.929162375540E+02   -0.12535E-04   -0.91376E-05  5996   0.273E-02    0.288E-02
RMM:   5    -0.929162306284E+02    0.69256E-05   -0.32807E-05  4331   0.150E-02
 142 F= -.95962655E+02 E0= -.95965422E+02  d E =-.431005E-03
       N       E                     dE             d eps       ncg     rms          rms(c)
DAV:   1    -0.929164990715E+02   -0.26152E-03   -0.59692E-01  5680   0.192E+00    0.203E-01
RMM:   2    -0.929179988319E+02   -0.14998E-02   -0.17524E-02  6124   0.415E-01    0.119E-01
RMM:   3    -0.929184986273E+02   -0.49980E-03   -0.50421E-03  7980   0.224E-01    0.864E-02
RMM:   4    -0.929185911999E+02   -0.92573E-04   -0.62973E-04  7599   0.750E-02    0.834E-02
RMM:   5    -0.929185364315E+02    0.54768E-04   -0.15501E-04  6779   0.341E-02    0.458E-02
RMM:   6    -0.929185418601E+02   -0.54286E-05   -0.72840E-05  5200   0.195E-02
 143 F= -.95963498E+02 E0= -.95966328E+02  d E =-.127434E-02
       N       E                     dE             d eps       ncg     rms          rms(c)
DAV:   1    -0.929129801128E+02    0.55563E-02   -0.23897E+00  5680   0.384E+00    0.406E-01
RMM:   2    -0.929190336666E+02   -0.60536E-02   -0.70464E-02  6188   0.831E-01    0.237E-01
RMM:   3    -0.929211143620E+02   -0.20807E-02   -0.20242E-02  8186   0.451E-01    0.179E-01
RMM:   4    -0.929213844666E+02   -0.27010E-03   -0.25389E-03  7983   0.150E-01    0.177E-01
RMM:   5    -0.929211789746E+02    0.20549E-03   -0.59769E-04  7886   0.664E-02    0.965E-02
RMM:   6    -0.929212067000E+02   -0.27725E-04   -0.28373E-04  6638   0.373E-02    0.217E-02
RMM:   7    -0.929212153700E+02   -0.86700E-05   -0.12071E-04  5525   0.222E-02    0.108E-02
RMM:   8    -0.929212200204E+02   -0.46504E-05   -0.54242E-05  4812   0.143E-02
 144 F= -.95963257E+02 E0= -.95966187E+02  d E =-.103261E-02
       N       E                     dE             d eps       ncg     rms          rms(c)
DAV:   1    -0.929169526531E+02    0.42627E-02   -0.86775E-01  5704   0.231E+00    0.242E-01
RMM:   2    -0.929191239679E+02   -0.21713E-02   -0.25165E-02  6090   0.500E-01    0.143E-01
RMM:   3    -0.929198945316E+02   -0.77056E-03   -0.74230E-03  7919   0.272E-01    0.105E-01
RMM:   4    -0.929199894490E+02   -0.94917E-04   -0.86042E-04  7545   0.887E-02    0.988E-02
RMM:   5    -0.929199166902E+02    0.72759E-04   -0.18467E-04  7124   0.394E-02    0.568E-02
RMM:   6    -0.929199253734E+02   -0.86832E-05   -0.75609E-05  5477   0.214E-02
 145 F= -.95963721E+02 E0= -.95966583E+02  d E =-.149709E-02
       N       E                     dE             d eps       ncg     rms          rms(c)
DAV:   1    -0.929203045268E+02   -0.38784E-03   -0.14674E-02  6296   0.292E-01    0.244E-02
RMM:   2    -0.929203303106E+02   -0.25784E-04   -0.27641E-04  5588   0.614E-02    0.121E-02
RMM:   3    -0.929203417823E+02   -0.11472E-04   -0.10939E-04  5091   0.345E-02    0.999E-03
RMM:   4    -0.929203422279E+02   -0.44557E-06   -0.18417E-05  3339   0.150E-02
 146 F= -.95963962E+02 E0= -.95966841E+02  d E =-.240526E-03
       N       E                     dE             d eps       ncg     rms          rms(c)
DAV:   1    -0.929210265089E+02   -0.68473E-03   -0.13318E-01  5872   0.879E-01    0.762E-02
RMM:   2    -0.929212585637E+02   -0.23205E-03   -0.26156E-03  5801   0.184E-01    0.359E-02
RMM:   3    -0.929213585096E+02   -0.99946E-04   -0.10586E-03  7281   0.104E-01    0.263E-02
RMM:   4    -0.929213689134E+02   -0.10404E-04   -0.11263E-04  5879   0.324E-02    0.272E-02
RMM:   5    -0.929213708094E+02   -0.18960E-05   -0.30705E-05  3834   0.165E-02
 147 F= -.95964462E+02 E0= -.95967355E+02  d E =-.740563E-03
       N       E                     dE             d eps       ncg     rms          rms(c)
DAV:   1    -0.929211216836E+02    0.24723E-03   -0.53101E-01  5816   0.175E+00    0.162E-01
RMM:   2    -0.929220387979E+02   -0.91711E-03   -0.10407E-02  5899   0.368E-01    0.761E-02
RMM:   3    -0.929224413647E+02   -0.40257E-03   -0.42407E-03  7498   0.208E-01    0.529E-02
RMM:   4    -0.929224816897E+02   -0.40325E-04   -0.44907E-04  7156   0.637E-02    0.544E-02
RMM:   5    -0.929224807139E+02    0.97587E-06   -0.11469E-04  5775   0.273E-02    0.496E-02
RMM:   6    -0.929224837236E+02   -0.30097E-05   -0.42885E-05  4210   0.152E-02
 148 F= -.95964519E+02 E0= -.95967457E+02  d E =-.798354E-03
       N       E                     dE             d eps       ncg     rms          rms(c)
DAV:   1    -0.929217887055E+02    0.69201E-03   -0.12115E-01  5984   0.838E-01    0.597E-02
RMM:   2    -0.929220120097E+02   -0.22330E-03   -0.24019E-03  5805   0.176E-01    0.298E-02
RMM:   3    -0.929221020695E+02   -0.90060E-04   -0.94492E-04  7152   0.982E-02    0.291E-02
RMM:   4    -0.929221102516E+02   -0.81820E-05   -0.94359E-05  5539   0.297E-02
 149 F= -.95964649E+02 E0= -.95967565E+02  d E =-.927548E-03
       N       E                     dE             d eps       ncg     rms          rms(c)
DAV:   1    -0.929224470520E+02   -0.34498E-03   -0.12861E-02  6160   0.270E-01    0.500E-02
RMM:   2    -0.929224690797E+02   -0.22028E-04   -0.23285E-04  5510   0.558E-02    0.261E-02
RMM:   3    -0.929224893172E+02   -0.20237E-04   -0.98346E-05  5020   0.324E-02    0.155E-02
RMM:   4    -0.929224810274E+02    0.82897E-05   -0.19886E-05  3454   0.137E-02
 150 F= -.95964872E+02 E0= -.95967792E+02  d E =-.222899E-03
       N       E                     dE             d eps       ncg     rms          rms(c)
DAV:   1    -0.929231842362E+02   -0.69492E-03   -0.11837E-01  5840   0.813E-01    0.887E-02
RMM:   2    -0.929233692561E+02   -0.18502E-03   -0.20932E-03  5750   0.169E-01    0.421E-02
RMM:   3    -0.929234586493E+02   -0.89393E-04   -0.91027E-04  7153   0.963E-02    0.238E-02
RMM:   4    -0.929234671788E+02   -0.85295E-05   -0.96456E-05  5668   0.292E-02
 151 F= -.95965414E+02 E0= -.95968345E+02  d E =-.765808E-03
       N       E                     dE             d eps       ncg     rms          rms(c)
DAV:   1    -0.929237992097E+02   -0.34056E-03   -0.47244E-01  5800   0.162E+00    0.172E-01
RMM:   2    -0.929245486457E+02   -0.74944E-03   -0.84016E-03  5881   0.338E-01    0.829E-02
RMM:   3    -0.929248971033E+02   -0.34846E-03   -0.36438E-03  7377   0.193E-01    0.509E-02
RMM:   4    -0.929249302265E+02   -0.33123E-04   -0.37764E-04  7038   0.578E-02    0.529E-02
RMM:   5    -0.929249324509E+02   -0.22244E-05   -0.10618E-04  5716   0.257E-02    0.505E-02
RMM:   6    -0.929249365961E+02   -0.41452E-05   -0.35574E-05  4223   0.138E-02
 152 F= -.95965999E+02 E0= -.95968977E+02  d E =-.135069E-02
