       N       E                     dE             d eps       ncg     rms          rms(c)
DAV:   1     0.463783643688E+03    0.46378E+03   -0.13684E+04  2000   0.869E+02
DAV:   2     0.330606216401E+02   -0.43072E+03   -0.41308E+03  2192   0.253E+02
DAV:   3    -0.795585868327E+02   -0.11262E+03   -0.10956E+03  3872   0.138E+02
DAV:   4    -0.898825242757E+02   -0.10324E+02   -0.10200E+02  3360   0.517E+01
DAV:   5    -0.902513167813E+02   -0.36879E+00   -0.36755E+00  3384   0.113E+01    0.195E+01
RMM:   6    -0.808483259240E+02    0.94030E+01   -0.20986E+01  2287   0.291E+01    0.811E+00
RMM:   7    -0.819463020365E+02   -0.10980E+01   -0.25148E+01  2685   0.157E+01    0.537E+00
RMM:   8    -0.811906345323E+02    0.75567E+00   -0.32082E+00  2263   0.984E+00    0.430E+00
RMM:   9    -0.806208726907E+02    0.56976E+00   -0.17760E+00  2223   0.854E+00    0.298E+00
RMM:  10    -0.805635531698E+02    0.57320E-01   -0.11337E+00  2638   0.472E+00    0.615E-01
RMM:  11    -0.805706645236E+02   -0.71114E-02   -0.23620E-01  2800   0.161E+00    0.443E-01
RMM:  12    -0.805712778455E+02   -0.61332E-03   -0.58039E-02  2628   0.897E-01    0.277E-01
RMM:  13    -0.805728482870E+02   -0.15704E-02   -0.24081E-02  2776   0.539E-01    0.115E-01
RMM:  14    -0.805733741938E+02   -0.52591E-03   -0.96865E-03  2798   0.307E-01    0.910E-02
RMM:  15    -0.805736148713E+02   -0.24068E-03   -0.30402E-03  2525   0.201E-01    0.545E-02
RMM:  16    -0.805739094703E+02   -0.29460E-03   -0.26371E-03  2685   0.129E-01    0.343E-02
RMM:  17    -0.805739298934E+02   -0.20423E-04   -0.10620E-03  2626   0.833E-02    0.225E-02
RMM:  18    -0.805744230489E+02   -0.49316E-03   -0.53148E-04  2534   0.901E-02    0.185E-02
RMM:  19    -0.805747592768E+02   -0.33623E-03   -0.24292E-04  2072   0.730E-02    0.108E-02
RMM:  20    -0.805753606776E+02   -0.60140E-03   -0.12260E-04  1904   0.396E-02    0.686E-03
RMM:  21    -0.805755584361E+02   -0.19776E-03   -0.32941E-05  1599   0.302E-02    0.388E-03
RMM:  22    -0.805756954662E+02   -0.13703E-03   -0.17553E-05  1491   0.248E-02    0.285E-03
RMM:  23    -0.805757126260E+02   -0.17160E-04   -0.86187E-07  1356   0.200E-02    0.166E-03
RMM:  24    -0.805757247456E+02   -0.12120E-04   -0.77218E-07  1331   0.122E-02    0.165E-03
RMM:  25    -0.805757292045E+02   -0.44589E-05   -0.12271E-06  1312   0.125E-02
   1 F= -.83753210E+02 E0= -.83753836E+02  d E =-.837532E+02
       N       E                     dE             d eps       ncg     rms          rms(c)
DAV:   1    -0.783874335185E+02    0.21883E+01   -0.11767E+03  2224   0.118E+02    0.157E+01
RMM:   2    -0.828416933479E+02   -0.44543E+01   -0.59733E+01  2636   0.342E+01    0.564E+00
RMM:   3    -0.827435331071E+02    0.98160E-01   -0.61773E+00  2718   0.111E+01    0.622E+00
RMM:   4    -0.825501749948E+02    0.19336E+00   -0.12930E+00  2601   0.577E+00    0.623E+00
RMM:   5    -0.821126445687E+02    0.43753E+00   -0.78103E-01  2518   0.413E+00    0.384E+00
RMM:   6    -0.820605352342E+02    0.52109E-01   -0.54183E-01  2496   0.354E+00    0.163E+00
RMM:   7    -0.820608560714E+02   -0.32084E-03   -0.16301E-01  2618   0.178E+00    0.540E-01
RMM:   8    -0.820641766617E+02   -0.33206E-02   -0.58230E-02  2579   0.119E+00    0.433E-01
RMM:   9    -0.820652964445E+02   -0.11198E-02   -0.12351E-02  2677   0.472E-01    0.271E-01
RMM:  10    -0.820683682738E+02   -0.30718E-02   -0.16708E-02  2633   0.412E-01    0.302E-01
RMM:  11    -0.820682281421E+02    0.14013E-03   -0.16487E-03  2490   0.199E-01    0.137E-01
RMM:  12    -0.820683736347E+02   -0.14549E-03   -0.15435E-03  2601   0.120E-01    0.442E-02
RMM:  13    -0.820689357285E+02   -0.56209E-03   -0.33195E-04  2185   0.912E-02    0.653E-02
RMM:  14    -0.820694594377E+02   -0.52371E-03   -0.15317E-03  2700   0.118E-01    0.768E-02
RMM:  15    -0.820695875921E+02   -0.12815E-03   -0.58929E-04  2132   0.731E-02    0.199E-02
RMM:  16    -0.820697424180E+02   -0.15483E-03   -0.13899E-04  1876   0.452E-02    0.160E-02
RMM:  17    -0.820697563562E+02   -0.13938E-04   -0.44884E-05  1669   0.311E-02    0.107E-02
RMM:  18    -0.820697694242E+02   -0.13068E-04   -0.21662E-05  1441   0.264E-02    0.106E-02
RMM:  19    -0.820697691138E+02    0.31034E-06   -0.86575E-06  1276   0.198E-02
   2 F= -.85290432E+02 E0= -.85290216E+02  d E =-.153722E+01
       N       E                     dE             d eps       ncg     rms          rms(c)
DAV:   1    -0.822983997622E+02   -0.22863E+00   -0.31399E+01  2400   0.235E+01    0.102E+00
RMM:   2    -0.823481334658E+02   -0.49734E-01   -0.66170E-01  2649   0.430E+00    0.666E-01
RMM:   3    -0.823464647011E+02    0.16688E-02   -0.83292E-02  2665   0.135E+00    0.468E-01
RMM:   4    -0.823470992666E+02   -0.63457E-03   -0.19918E-02  2626   0.667E-01    0.420E-01
RMM:   5    -0.823430625515E+02    0.40367E-02   -0.84043E-03  2445   0.478E-01    0.262E-01
RMM:   6    -0.823417705006E+02    0.12921E-02   -0.27235E-03  2286   0.345E-01    0.110E-01
RMM:   7    -0.823418297483E+02   -0.59248E-04   -0.22009E-03  2666   0.168E-01    0.444E-02
RMM:   8    -0.823418068849E+02    0.22863E-04   -0.36925E-04  2395   0.956E-02    0.286E-02
RMM:   9    -0.823418257157E+02   -0.18831E-04   -0.13392E-04  2126   0.560E-02    0.158E-02
RMM:  10    -0.823418515363E+02   -0.25821E-04   -0.39869E-05  1625   0.403E-02    0.702E-03
RMM:  11    -0.823419000833E+02   -0.48547E-04   -0.21689E-05  1484   0.216E-02    0.535E-03
RMM:  12    -0.823419763068E+02   -0.76224E-04   -0.20258E-05  1400   0.256E-02    0.563E-03
RMM:  13    -0.823420323684E+02   -0.56062E-04   -0.18221E-05  1402   0.238E-02    0.359E-03
RMM:  14    -0.823420635480E+02   -0.31180E-04   -0.95560E-06  1298   0.189E-02    0.182E-03
RMM:  15    -0.823420920216E+02   -0.28474E-04   -0.84280E-06  1295   0.152E-02    0.317E-03
RMM:  16    -0.823420977668E+02   -0.57452E-05   -0.38610E-06  1248   0.146E-02
   3 F= -.85557194E+02 E0= -.85556943E+02  d E =-.180398E+01
       N       E                     dE             d eps       ncg     rms          rms(c)
DAV:   1    -0.824339836870E+02   -0.91892E-01   -0.98643E+00  2216   0.132E+01    0.557E-01
RMM:   2    -0.824467380867E+02   -0.12754E-01   -0.18503E-01  2622   0.234E+00    0.363E-01
RMM:   3    -0.824469309678E+02   -0.19288E-03   -0.25381E-02  2701   0.755E-01    0.290E-01
RMM:   4    -0.824455116055E+02    0.14194E-02   -0.54885E-03  2567   0.367E-01    0.239E-01
RMM:   5    -0.824446650959E+02    0.84651E-03   -0.21458E-03  2402   0.254E-01    0.152E-01
RMM:   6    -0.824443811364E+02    0.28396E-03   -0.10919E-03  2340   0.208E-01    0.575E-02
RMM:   7    -0.824443853610E+02   -0.42246E-05   -0.75842E-04  2529   0.108E-01    0.220E-02
RMM:   8    -0.824443915097E+02   -0.61487E-05   -0.13219E-04  2023   0.573E-02    0.165E-02
RMM:   9    -0.824444068650E+02   -0.15355E-04   -0.32994E-05  1595   0.325E-02    0.869E-03
RMM:  10    -0.824444295446E+02   -0.22680E-04   -0.15062E-05  1332   0.284E-02    0.474E-03
RMM:  11    -0.824444470573E+02   -0.17513E-04   -0.68853E-06  1256   0.194E-02    0.386E-03
RMM:  12    -0.824444914305E+02   -0.44373E-04   -0.12065E-05  1312   0.181E-02    0.465E-03
RMM:  13    -0.824445258102E+02   -0.34380E-04   -0.10680E-05  1315   0.209E-02    0.336E-03
RMM:  14    -0.824445371971E+02   -0.11387E-04   -0.55629E-06  1255   0.150E-02    0.197E-03
RMM:  15    -0.824445485386E+02   -0.11342E-04   -0.44930E-06  1253   0.118E-02    0.206E-03
RMM:  16    -0.824445518729E+02   -0.33342E-05   -0.23806E-06  1123   0.100E-02
   4 F= -.85656511E+02 E0= -.85656221E+02  d E =-.190330E+01
       N       E                     dE             d eps       ncg     rms          rms(c)
DAV:   1    -0.825227215710E+02   -0.78173E-01   -0.96088E+01  2000   0.412E+01    0.178E+00
RMM:   2    -0.827294896036E+02   -0.20677E+00   -0.26695E+00  2668   0.820E+00    0.130E+00
RMM:   3    -0.827229316250E+02    0.65580E-02   -0.22338E-01  2763   0.230E+00    0.113E+00
RMM:   4    -0.826977713575E+02    0.25160E-01   -0.40709E-02  2522   0.106E+00    0.935E-01
RMM:   5    -0.826843963820E+02    0.13375E-01   -0.10132E-01  2642   0.112E+00    0.419E-01
RMM:   6    -0.826800639317E+02    0.43325E-02   -0.19913E-02  2478   0.794E-01    0.309E-01
RMM:   7    -0.826782382173E+02    0.18257E-02   -0.10275E-02  2670   0.354E-01    0.148E-01
RMM:   8    -0.826781126979E+02    0.12552E-03   -0.27790E-03  2682   0.227E-01    0.769E-02
RMM:   9    -0.826780946316E+02    0.18066E-04   -0.47093E-04  2436   0.104E-01    0.454E-02
RMM:  10    -0.826781005750E+02   -0.59434E-05   -0.38473E-04  2485   0.725E-02    0.155E-02
RMM:  11    -0.826781698689E+02   -0.69294E-04   -0.13481E-04  2054   0.415E-02    0.192E-02
RMM:  12    -0.826783617557E+02   -0.19189E-03   -0.11640E-04  1974   0.439E-02    0.564E-03
RMM:  13    -0.826784724862E+02   -0.11073E-03   -0.49600E-05  1713   0.313E-02    0.778E-03
RMM:  14    -0.826786400084E+02   -0.16752E-03   -0.48693E-05  1680   0.316E-02    0.483E-03
RMM:  15    -0.826787042058E+02   -0.64197E-04   -0.20924E-05  1441   0.235E-02    0.360E-03
RMM:  16    -0.826787266860E+02   -0.22480E-04   -0.73775E-06  1264   0.159E-02    0.137E-03
RMM:  17    -0.826787411131E+02   -0.14427E-04   -0.43113E-06  1244   0.127E-02    0.194E-03
RMM:  18    -0.826787467633E+02   -0.56502E-05   -0.18966E-06  1168   0.964E-03
   5 F= -.85881138E+02 E0= -.85880890E+02  d E =-.212793E+01
       N       E                     dE             d eps       ncg     rms          rms(c)
DAV:   1    -0.824263402359E+02    0.25240E+00   -0.19913E+02  2000   0.589E+01    0.400E+00
RMM:   2    -0.830205164186E+02   -0.59418E+00   -0.80046E+00  2648   0.144E+01    0.199E+00
RMM:   3    -0.830887179647E+02   -0.68202E-01   -0.75172E-01  2752   0.445E+00    0.201E+00
RMM:   4    -0.829731485387E+02    0.11557E+00   -0.14465E-01  2507   0.226E+00    0.166E+00
RMM:   5    -0.829376772608E+02    0.35471E-01   -0.19928E-01  2659   0.157E+00    0.641E-01
RMM:   6    -0.829321279047E+02    0.55494E-02   -0.59115E-02  2596   0.124E+00    0.371E-01
RMM:   7    -0.829284485903E+02    0.36793E-02   -0.21227E-02  2614   0.642E-01    0.195E-01
RMM:   8    -0.829284280556E+02    0.20535E-04   -0.10095E-02  2814   0.399E-01    0.930E-02
RMM:   9    -0.829285491790E+02   -0.12112E-03   -0.17338E-03  2700   0.165E-01    0.629E-02
RMM:  10    -0.829287146064E+02   -0.16543E-03   -0.60052E-04  2630   0.956E-02    0.347E-02
RMM:  11    -0.829288912843E+02   -0.17668E-03   -0.35747E-04  2442   0.643E-02    0.153E-02
RMM:  12    -0.829291467679E+02   -0.25548E-03   -0.18560E-04  2134   0.505E-02    0.104E-02
RMM:  13    -0.829292776556E+02   -0.13089E-03   -0.73660E-05  1783   0.363E-02    0.501E-03
RMM:  14    -0.829293988715E+02   -0.12122E-03   -0.39553E-05  1646   0.310E-02    0.506E-03
RMM:  15    -0.829295083832E+02   -0.10951E-03   -0.40927E-05  1564   0.249E-02    0.233E-03
RMM:  16    -0.829295367997E+02   -0.28417E-04   -0.11709E-05  1383   0.187E-02    0.210E-03
RMM:  17    -0.829295506204E+02   -0.13821E-04   -0.50868E-06  1293   0.141E-02    0.103E-03
RMM:  18    -0.829295577567E+02   -0.71363E-05   -0.27448E-06  1227   0.928E-03
   6 F= -.86118948E+02 E0= -.86119633E+02  d E =-.236574E+01
       N       E                     dE             d eps       ncg     rms          rms(c)
DAV:   1    -0.828750613217E+02    0.54489E-01   -0.19637E+01  2000   0.193E+01    0.895E-01
RMM:   2    -0.829070109238E+02   -0.31950E-01   -0.42316E-01  2634   0.392E+00    0.539E-01
RMM:   3    -0.829148799186E+02   -0.78690E-02   -0.77703E-02  2848   0.127E+00    0.503E-01
RMM:   4    -0.829041002611E+02    0.10780E-01   -0.14846E-02  2549   0.642E-01    0.259E-01
RMM:   5    -0.829034610841E+02    0.63918E-03   -0.73479E-03  2691   0.378E-01    0.137E-01
RMM:   6    -0.829031741469E+02    0.28694E-03   -0.20757E-03  2434   0.265E-01    0.512E-02
RMM:   7    -0.829033378433E+02   -0.16370E-03   -0.10108E-03  2679   0.111E-01    0.287E-02
RMM:   8    -0.829034147733E+02   -0.76930E-04   -0.21010E-04  2214   0.650E-02    0.151E-02
RMM:   9    -0.829035071923E+02   -0.92419E-04   -0.71823E-05  1822   0.376E-02    0.848E-03
RMM:  10    -0.829035672664E+02   -0.60074E-04   -0.30437E-05  1516   0.320E-02    0.399E-03
RMM:  11    -0.829036086509E+02   -0.41385E-04   -0.15965E-05  1396   0.226E-02    0.310E-03
RMM:  12    -0.829036578428E+02   -0.49192E-04   -0.17256E-05  1413   0.203E-02    0.304E-03
RMM:  13    -0.829036885098E+02   -0.30667E-04   -0.14820E-05  1376   0.203E-02    0.292E-03
RMM:  14    -0.829036963230E+02   -0.78132E-05   -0.56244E-06  1281   0.160E-02
   7 F= -.86096925E+02 E0= -.86097310E+02  d E =-.234371E+01
       N       E                     dE             d eps       ncg     rms          rms(c)
DAV:   1    -0.829238898632E+02   -0.20201E-01   -0.75765E+00  2048   0.120E+01    0.559E-01
RMM:   2    -0.829344080897E+02   -0.10518E-01   -0.16166E-01  2692   0.236E+00    0.330E-01
RMM:   3    -0.829373973608E+02   -0.29893E-02   -0.26265E-02  2827   0.736E-01    0.311E-01
RMM:   4    -0.829333271201E+02    0.40702E-02   -0.48430E-03  2523   0.379E-01    0.179E-01
RMM:   5    -0.829330920338E+02    0.23509E-03   -0.44813E-03  2693   0.266E-01    0.835E-02
RMM:   6    -0.829329389495E+02    0.15308E-03   -0.10744E-03  2491   0.186E-01    0.477E-02
RMM:   7    -0.829329230109E+02    0.15939E-04   -0.42296E-04  2557   0.712E-02    0.298E-02
RMM:   8    -0.829329325993E+02   -0.95885E-05   -0.24294E-04  2391   0.656E-02    0.155E-02
RMM:   9    -0.829329439750E+02   -0.11376E-04   -0.45961E-05  1729   0.352E-02    0.114E-02
RMM:  10    -0.829329519043E+02   -0.79293E-05   -0.19461E-05  1421   0.297E-02
   8 F= -.86123795E+02 E0= -.86124366E+02  d E =-.237059E+01
       N       E                     dE             d eps       ncg     rms          rms(c)
DAV:   1    -0.831392056403E+02   -0.20626E+00   -0.18378E+01  2000   0.142E+01    0.233E+00
RMM:   2    -0.830951312009E+02    0.44074E-01   -0.76929E-01  2641   0.592E+00    0.139E+00
RMM:   3    -0.831837478458E+02   -0.88617E-01   -0.62507E-01  2705   0.283E+00    0.129E+00
RMM:   4    -0.830999728945E+02    0.83775E-01   -0.12137E-01  2447   0.177E+00    0.832E-01
RMM:   5    -0.830874686144E+02    0.12504E-01   -0.32061E-02  2596   0.648E-01    0.593E-01
RMM:   6    -0.830894349869E+02   -0.19664E-02   -0.10734E-01  2915   0.971E-01    0.421E-01
RMM:   7    -0.830857885746E+02    0.36464E-02   -0.10249E-02  2485   0.482E-01    0.242E-01
RMM:   8    -0.830847083612E+02    0.10802E-02   -0.13970E-02  2725   0.385E-01    0.546E-02
RMM:   9    -0.830848135938E+02   -0.10523E-03   -0.85848E-04  2661   0.129E-01    0.557E-02
RMM:  10    -0.830848039721E+02    0.96216E-05   -0.10968E-04  1933   0.486E-02    0.357E-02
RMM:  11    -0.830848130949E+02   -0.91227E-05   -0.10582E-04  1890   0.462E-02    0.149E-02
RMM:  12    -0.830848497117E+02   -0.36617E-04   -0.86349E-05  1719   0.441E-02    0.450E-03
RMM:  13    -0.830848754444E+02   -0.25733E-04   -0.19028E-05  1386   0.310E-02    0.658E-03
RMM:  14    -0.830848905144E+02   -0.15070E-04   -0.81417E-06  1295   0.217E-02    0.387E-03
RMM:  15    -0.830849096147E+02   -0.19100E-04   -0.10240E-05  1319   0.148E-02    0.149E-03
RMM:  16    -0.830849246416E+02   -0.15027E-04   -0.80321E-06  1304   0.147E-02    0.165E-03
RMM:  17    -0.830849302803E+02   -0.56387E-05   -0.46481E-06  1257   0.122E-02
   9 F= -.86282341E+02 E0= -.86282268E+02  d E =-.158545E+00
       N       E                     dE             d eps       ncg     rms          rms(c)
DAV:   1    -0.832210992582E+02   -0.13617E+00   -0.34568E+00  2000   0.661E+00    0.820E-01
RMM:   2    -0.832207467783E+02    0.35248E-03   -0.13817E-01  2634   0.255E+00    0.548E-01
RMM:   3    -0.832254976768E+02   -0.47509E-02   -0.14535E-01  2698   0.115E+00    0.439E-01
RMM:   4    -0.832219068958E+02    0.35908E-02   -0.96704E-03  2553   0.471E-01    0.350E-01
RMM:   5    -0.832204464228E+02    0.14605E-02   -0.14761E-03  2645   0.196E-01    0.303E-01
RMM:   6    -0.832188996907E+02    0.15467E-02   -0.65803E-03  2908   0.248E-01    0.116E-01
RMM:   7    -0.832192070873E+02   -0.30740E-03   -0.58002E-03  2823   0.283E-01    0.111E-01
RMM:   8    -0.832188697322E+02    0.33736E-03   -0.99591E-04  2216   0.132E-01    0.436E-02
RMM:   9    -0.832188733029E+02   -0.35707E-05   -0.49635E-04  2317   0.771E-02    0.109E-02
RMM:  10    -0.832188781514E+02   -0.48485E-05   -0.35586E-05  1575   0.480E-02
  10 F= -.86413132E+02 E0= -.86413404E+02  d E =-.289337E+00
       N       E                     dE             d eps       ncg     rms          rms(c)
DAV:   1    -0.832877540931E+02   -0.68881E-01   -0.42147E+00  2000   0.836E+00    0.528E-01
RMM:   2    -0.832997036519E+02   -0.11950E-01   -0.14998E-01  2646   0.234E+00    0.295E-01
RMM:   3    -0.833011097167E+02   -0.14061E-02   -0.24162E-02  2669   0.653E-01    0.208E-01
RMM:   4    -0.833013523407E+02   -0.24262E-03   -0.61717E-03  2694   0.345E-01    0.184E-01
RMM:   5    -0.833002279462E+02    0.11244E-02   -0.16968E-03  2526   0.221E-01    0.714E-02
RMM:   6    -0.833001783961E+02    0.49550E-04   -0.58900E-04  2494   0.138E-01    0.255E-02
RMM:   7    -0.833001748353E+02    0.35608E-05   -0.16473E-04  2102   0.589E-02    0.147E-02
RMM:   8    -0.833001756177E+02   -0.78237E-06   -0.67739E-05  1838   0.414E-02
  11 F= -.86498736E+02 E0= -.86498555E+02  d E =-.856035E-01
       N       E                     dE             d eps       ncg     rms          rms(c)
DAV:   1    -0.833033589069E+02   -0.31841E-02   -0.48070E-01  2096   0.282E+00    0.177E-01
RMM:   2    -0.833046948715E+02   -0.13360E-02   -0.16490E-02  2591   0.795E-01    0.998E-02
RMM:   3    -0.833049959149E+02   -0.30104E-03   -0.29839E-03  2587   0.231E-01    0.810E-02
RMM:   4    -0.833048470816E+02    0.14883E-03   -0.78116E-04  2554   0.133E-01    0.563E-02
RMM:   5    -0.833047798532E+02    0.67228E-04   -0.16871E-04  2238   0.702E-02    0.221E-02
RMM:   6    -0.833047798585E+02   -0.52728E-08   -0.51503E-05  1718   0.488E-02
  12 F= -.86504788E+02 E0= -.86504442E+02  d E =-.916556E-01
       N       E                     dE             d eps       ncg     rms          rms(c)
DAV:   1    -0.833394587305E+02   -0.34679E-01   -0.18864E-01  2112   0.167E+00    0.145E-01
RMM:   2    -0.833402029187E+02   -0.74419E-03   -0.96091E-03  2573   0.639E-01    0.760E-02
RMM:   3    -0.833404172408E+02   -0.21432E-03   -0.17352E-03  2603   0.187E-01    0.680E-02
RMM:   4    -0.833402837979E+02    0.13344E-03   -0.52881E-04  2484   0.105E-01    0.406E-02
RMM:   5    -0.833402518703E+02    0.31928E-04   -0.11782E-04  2131   0.592E-02    0.164E-02
RMM:   6    -0.833402500623E+02    0.18080E-05   -0.35864E-05  1585   0.399E-02
  13 F= -.86541739E+02 E0= -.86541246E+02  d E =-.369512E-01
       N       E                     dE             d eps       ncg     rms          rms(c)
DAV:   1    -0.834137503419E+02   -0.73498E-01   -0.16925E+00  2000   0.504E+00    0.436E-01
RMM:   2    -0.834212968616E+02   -0.75465E-02   -0.93876E-02  2667   0.187E+00    0.226E-01
RMM:   3    -0.834228205287E+02   -0.15237E-02   -0.12479E-02  2674   0.522E-01    0.208E-01
RMM:   4    -0.834215459354E+02    0.12746E-02   -0.40673E-03  2689   0.290E-01    0.121E-01
RMM:   5    -0.834212459284E+02    0.30001E-03   -0.10736E-03  2654   0.164E-01    0.494E-02
RMM:   6    -0.834212052124E+02    0.40716E-04   -0.27872E-04  2334   0.963E-02    0.151E-02
RMM:   7    -0.834212063157E+02   -0.11033E-05   -0.10148E-04  1935   0.464E-02    0.886E-03
RMM:   8    -0.834212085704E+02   -0.22547E-05   -0.31342E-05  1498   0.292E-02
  14 F= -.86627059E+02 E0= -.86626017E+02  d E =-.122271E+00
       N       E                     dE             d eps       ncg     rms          rms(c)
DAV:   1    -0.834355519259E+02   -0.14346E-01   -0.67761E+00  2000   0.103E+01    0.871E-01
RMM:   2    -0.834676512622E+02   -0.32099E-01   -0.39092E-01  2699   0.364E+00    0.453E-01
RMM:   3    -0.834751157164E+02   -0.74645E-02   -0.49024E-02  2698   0.105E+00    0.458E-01
RMM:   4    -0.834675679511E+02    0.75478E-02   -0.15438E-02  2686   0.585E-01    0.237E-01
RMM:   5    -0.834666701332E+02    0.89782E-03   -0.42955E-03  2670   0.321E-01    0.101E-01
RMM:   6    -0.834665131320E+02    0.15700E-03   -0.11119E-03  2473   0.194E-01    0.302E-02
RMM:   7    -0.834665262577E+02   -0.13126E-04   -0.46525E-04  2480   0.800E-02    0.178E-02
RMM:   8    -0.834665272670E+02   -0.10092E-05   -0.12410E-04  1950   0.481E-02    0.110E-02
RMM:   9    -0.834665318955E+02   -0.46286E-05   -0.39673E-05  1589   0.340E-02
  15 F= -.86680828E+02 E0= -.86678415E+02  d E =-.176040E+00
       N       E                     dE             d eps       ncg     rms          rms(c)
DAV:   1    -0.834692289116E+02   -0.27016E-02   -0.17959E-01  2400   0.162E+00    0.138E-01
RMM:   2    -0.834699599366E+02   -0.73103E-03   -0.85596E-03  2552   0.600E-01    0.810E-02
RMM:   3    -0.834701470660E+02   -0.18713E-03   -0.15095E-03  2632   0.189E-01    0.799E-02
RMM:   4    -0.834699240911E+02    0.22297E-03   -0.46511E-04  2354   0.102E-01    0.345E-02
RMM:   5    -0.834699357179E+02   -0.11627E-04   -0.14371E-04  2190   0.604E-02    0.130E-02
RMM:   6    -0.834699440182E+02   -0.83004E-05   -0.34865E-05  1569   0.380E-02
  16 F= -.86682879E+02 E0= -.86680709E+02  d E =-.178091E+00
       N       E                     dE             d eps       ncg     rms          rms(c)
DAV:   1    -0.834865110097E+02   -0.16575E-01   -0.40175E-01  2288   0.272E+00    0.161E-01
RMM:   2    -0.834877339275E+02   -0.12229E-02   -0.15380E-02  2644   0.760E-01    0.921E-02
RMM:   3    -0.834879727215E+02   -0.23879E-03   -0.24720E-03  2792   0.229E-01    0.807E-02
RMM:   4    -0.834877565315E+02    0.21619E-03   -0.53805E-04  2475   0.121E-01    0.469E-02
RMM:   5    -0.834877345824E+02    0.21949E-04   -0.12057E-04  2086   0.594E-02    0.247E-02
RMM:   6    -0.834877343027E+02    0.27969E-06   -0.65679E-05  1797   0.517E-02
  17 F= -.86701174E+02 E0= -.86698957E+02  d E =-.182953E-01
       N       E                     dE             d eps       ncg     rms          rms(c)
DAV:   1    -0.835078288153E+02   -0.20094E-01   -0.36328E+00  2000   0.819E+00    0.492E-01
RMM:   2    -0.835192944215E+02   -0.11466E-01   -0.14200E-01  2652   0.231E+00    0.283E-01
RMM:   3    -0.835211286729E+02   -0.18343E-02   -0.22164E-02  2821   0.698E-01    0.238E-01
RMM:   4    -0.835195353444E+02    0.15933E-02   -0.48988E-03  2616   0.359E-01    0.144E-01
RMM:   5    -0.835192343547E+02    0.30099E-03   -0.12457E-03  2617   0.177E-01    0.753E-02
RMM:   6    -0.835191792152E+02    0.55140E-04   -0.49534E-04  2386   0.139E-01    0.289E-02
RMM:   7    -0.835191911908E+02   -0.11976E-04   -0.20612E-04  2305   0.656E-02    0.124E-02
RMM:   8    -0.835191902617E+02    0.92909E-06   -0.41828E-05  1667   0.415E-02
  18 F= -.86734109E+02 E0= -.86731657E+02  d E =-.512305E-01
       N       E                     dE             d eps       ncg     rms          rms(c)
DAV:   1    -0.835197891104E+02   -0.59792E-03   -0.79645E-01  2160   0.383E+00    0.226E-01
RMM:   2    -0.835221809423E+02   -0.23918E-02   -0.30204E-02  2653   0.105E+00    0.134E-01
RMM:   3    -0.835226206384E+02   -0.43970E-03   -0.48094E-03  2806   0.322E-01    0.115E-01
RMM:   4    -0.835222098674E+02    0.41077E-03   -0.10609E-03  2568   0.170E-01    0.671E-02
RMM:   5    -0.835221540512E+02    0.55816E-04   -0.25113E-04  2368   0.811E-02    0.341E-02
RMM:   6    -0.835221495285E+02    0.45227E-05   -0.12364E-04  2045   0.676E-02    0.133E-02
RMM:   7    -0.835221510636E+02   -0.15351E-05   -0.35592E-05  1549   0.398E-02
  19 F= -.86737741E+02 E0= -.86735170E+02  d E =-.548616E-01
       N       E                     dE             d eps       ncg     rms          rms(c)
DAV:   1    -0.835405383088E+02   -0.18389E-01   -0.34673E-01  2144   0.246E+00    0.165E-01
RMM:   2    -0.835417059667E+02   -0.11677E-02   -0.14150E-02  2440   0.805E-01    0.959E-02
RMM:   3    -0.835418884436E+02   -0.18248E-03   -0.25988E-03  2724   0.249E-01    0.599E-02
RMM:   4    -0.835419646200E+02   -0.76176E-04   -0.48722E-04  2489   0.112E-01    0.546E-02
RMM:   5    -0.835418871715E+02    0.77449E-04   -0.15636E-04  2078   0.721E-02    0.308E-02
RMM:   6    -0.835418659472E+02    0.21224E-04   -0.51975E-05  1665   0.547E-02    0.108E-02
RMM:   7    -0.835418701073E+02   -0.41601E-05   -0.28232E-05  1487   0.314E-02
  20 F= -.86757718E+02 E0= -.86755121E+02  d E =-.199776E-01
       N       E                     dE             d eps       ncg     rms          rms(c)
DAV:   1    -0.835742651467E+02   -0.32399E-01   -0.31062E+00  2000   0.738E+00    0.496E-01
RMM:   2    -0.835844006374E+02   -0.10135E-01   -0.12483E-01  2434   0.238E+00    0.290E-01
RMM:   3    -0.835861260934E+02   -0.17255E-02   -0.23909E-02  2738   0.748E-01    0.186E-01
RMM:   4    -0.835867444135E+02   -0.61832E-03   -0.44014E-03  2610   0.316E-01    0.172E-01
RMM:   5    -0.835859596947E+02    0.78472E-03   -0.12980E-03  2495   0.200E-01    0.937E-02
RMM:   6    -0.835858179446E+02    0.14175E-03   -0.52472E-04  2330   0.149E-01    0.326E-02
RMM:   7    -0.835858404368E+02   -0.22492E-04   -0.26085E-04  2312   0.620E-02    0.137E-02
RMM:   8    -0.835858375359E+02    0.29008E-05   -0.40445E-05  1565   0.439E-02
  21 F= -.86802513E+02 E0= -.86799811E+02  d E =-.647720E-01
       N       E                     dE             d eps       ncg     rms          rms(c)
DAV:   1    -0.835604939854E+02    0.25346E-01   -0.12263E+01  2000   0.147E+01    0.101E+00
RMM:   2    -0.836003054598E+02   -0.39811E-01   -0.49668E-01  2447   0.470E+00    0.581E-01
RMM:   3    -0.836073493601E+02   -0.70439E-02   -0.96967E-02  2720   0.150E+00    0.376E-01
RMM:   4    -0.836097854586E+02   -0.24361E-02   -0.17756E-02  2620   0.633E-01    0.351E-01
RMM:   5    -0.836066177667E+02    0.31677E-02   -0.48206E-03  2496   0.390E-01    0.194E-01
RMM:   6    -0.836061621492E+02    0.45562E-03   -0.22840E-03  2363   0.305E-01    0.692E-02
RMM:   7    -0.836062294806E+02   -0.67331E-04   -0.10419E-03  2685   0.129E-01    0.292E-02
RMM:   8    -0.836062126259E+02    0.16855E-04   -0.18528E-04  2190   0.716E-02    0.149E-02
RMM:   9    -0.836062121126E+02    0.51331E-06   -0.64692E-05  1784   0.436E-02
  22 F= -.86824790E+02 E0= -.86821822E+02  d E =-.870498E-01
       N       E                     dE             d eps       ncg     rms          rms(c)
DAV:   1    -0.836066138045E+02   -0.40118E-03   -0.81135E-01  2176   0.376E+00    0.245E-01
RMM:   2    -0.836091651123E+02   -0.25513E-02   -0.31374E-02  2433   0.120E+00    0.147E-01
RMM:   3    -0.836095500841E+02   -0.38497E-03   -0.58317E-03  2731   0.375E-01    0.872E-02
RMM:   4    -0.836096520222E+02   -0.10194E-03   -0.10546E-03  2560   0.161E-01    0.686E-02
RMM:   5    -0.836096040364E+02    0.47986E-04   -0.35411E-04  2358   0.104E-01    0.457E-02
RMM:   6    -0.836095299179E+02    0.74118E-04   -0.10903E-04  1988   0.682E-02    0.149E-02
RMM:   7    -0.836095371572E+02   -0.72393E-05   -0.52657E-05  1645   0.357E-02
  23 F= -.86827590E+02 E0= -.86824700E+02  d E =-.898494E-01
       N       E                     dE             d eps       ncg     rms          rms(c)
DAV:   1    -0.836182077605E+02   -0.86778E-02   -0.17088E+00  2224   0.534E+00    0.303E-01
RMM:   2    -0.836225493164E+02   -0.43416E-02   -0.52652E-02  2626   0.129E+00    0.185E-01
RMM:   3    -0.836228400709E+02   -0.29075E-03   -0.75520E-03  2750   0.372E-01    0.107E-01
RMM:   4    -0.836231461641E+02   -0.30609E-03   -0.17105E-03  2580   0.198E-01    0.884E-02
RMM:   5    -0.836228677484E+02    0.27842E-03   -0.56436E-04  2507   0.127E-01    0.419E-02
RMM:   6    -0.836228159554E+02    0.51793E-04   -0.12205E-04  2044   0.764E-02    0.160E-02
RMM:   7    -0.836228214762E+02   -0.55208E-05   -0.59194E-05  1728   0.364E-02
  24 F= -.86839950E+02 E0= -.86837034E+02  d E =-.123603E-01
       N       E                     dE             d eps       ncg     rms          rms(c)
DAV:   1    -0.836228040686E+02    0.11887E-04   -0.61966E-03  2776   0.328E-01    0.181E-02
RMM:   2    -0.836228192710E+02   -0.15202E-04   -0.19924E-04  2084   0.850E-02    0.115E-02
RMM:   3    -0.836228201066E+02   -0.83561E-06   -0.29096E-05  1325   0.332E-02
  25 F= -.86840005E+02 E0= -.86837102E+02  d E =-.124148E-01
       N       E                     dE             d eps       ncg     rms          rms(c)
DAV:   1    -0.836395679225E+02   -0.16749E-01   -0.11287E+00  2048   0.452E+00    0.224E-01
RMM:   2    -0.836426377547E+02   -0.30698E-02   -0.34223E-02  2641   0.108E+00    0.131E-01
RMM:   3    -0.836432460509E+02   -0.60830E-03   -0.51630E-03  2685   0.351E-01    0.112E-01
RMM:   4    -0.836429045761E+02    0.34147E-03   -0.82525E-04  2477   0.159E-01    0.654E-02
RMM:   5    -0.836428860312E+02    0.18545E-04   -0.35743E-04  2453   0.992E-02    0.323E-02
RMM:   6    -0.836428696409E+02    0.16390E-04   -0.85746E-05  1904   0.674E-02    0.107E-02
RMM:   7    -0.836428718938E+02   -0.22529E-05   -0.36663E-05  1577   0.349E-02
  26 F= -.86858385E+02 E0= -.86855456E+02  d E =-.183797E-01
       N       E                     dE             d eps       ncg     rms          rms(c)
DAV:   1    -0.836604140018E+02   -0.17544E-01   -0.10155E+01  2000   0.135E+01    0.684E-01
RMM:   2    -0.836894222791E+02   -0.29008E-01   -0.32153E-01  2628   0.326E+00    0.400E-01
RMM:   3    -0.836941047646E+02   -0.46825E-02   -0.45297E-02  2691   0.103E+00    0.339E-01
RMM:   4    -0.836914407586E+02    0.26640E-02   -0.71112E-03  2555   0.460E-01    0.217E-01
RMM:   5    -0.836910697161E+02    0.37104E-03   -0.38144E-03  2636   0.302E-01    0.105E-01
RMM:   6    -0.836909481078E+02    0.12161E-03   -0.97773E-04  2303   0.205E-01    0.460E-02
RMM:   7    -0.836909368035E+02    0.11304E-04   -0.33484E-04  2396   0.703E-02    0.309E-02
RMM:   8    -0.836909351427E+02    0.16609E-05   -0.33012E-04  2366   0.706E-02    0.160E-02
RMM:   9    -0.836909281201E+02    0.70225E-05   -0.29935E-05  1505   0.327E-02
  27 F= -.86901320E+02 E0= -.86898362E+02  d E =-.613156E-01
       N       E                     dE             d eps       ncg     rms          rms(c)
DAV:   1    -0.836061886598E+02    0.84746E-01   -0.40493E+01  2000   0.269E+01    0.147E+00
RMM:   2    -0.837314262405E+02   -0.12524E+00   -0.14179E+00  2623   0.665E+00    0.802E-01
RMM:   3    -0.837431732383E+02   -0.11747E-01   -0.16925E-01  2759   0.188E+00    0.631E-01
RMM:   4    -0.837411402611E+02    0.20330E-02   -0.26896E-02  2646   0.826E-01    0.516E-01
RMM:   5    -0.837367297641E+02    0.44105E-02   -0.19423E-02  2652   0.646E-01    0.243E-01
RMM:   6    -0.837364156097E+02    0.31415E-03   -0.61415E-03  2363   0.462E-01    0.143E-01
RMM:   7    -0.837360909003E+02    0.32471E-03   -0.14142E-03  2526   0.150E-01    0.962E-02
RMM:   8    -0.837360200822E+02    0.70818E-04   -0.31534E-03  2633   0.178E-01    0.455E-02
RMM:   9    -0.837359594953E+02    0.60587E-04   -0.24222E-04  2183   0.913E-02    0.293E-02
RMM:  10    -0.837359407443E+02    0.18751E-04   -0.19963E-04  2161   0.520E-02    0.104E-02
RMM:  11    -0.837359479397E+02   -0.71954E-05   -0.48580E-05  1573   0.385E-02
  28 F= -.86935678E+02 E0= -.86932714E+02  d E =-.956728E-01
       N       E                     dE             d eps       ncg     rms          rms(c)
DAV:   1    -0.837455087105E+02   -0.95680E-02   -0.63113E+00  2224   0.101E+01    0.642E-01
RMM:   2    -0.837578338540E+02   -0.12325E-01   -0.17104E-01  2570   0.238E+00    0.377E-01
RMM:   3    -0.837627896416E+02   -0.49558E-02   -0.33706E-02  2631   0.886E-01    0.317E-01
RMM:   4    -0.837591110618E+02    0.36786E-02   -0.69603E-03  2516   0.441E-01    0.181E-01
RMM:   5    -0.837589291371E+02    0.18192E-03   -0.21111E-03  2597   0.224E-01    0.112E-01
RMM:   6    -0.837589043723E+02    0.24765E-04   -0.11962E-03  2311   0.205E-01    0.498E-02
RMM:   7    -0.837588956168E+02    0.87555E-05   -0.28937E-04  2358   0.730E-02    0.274E-02
RMM:   8    -0.837588944021E+02    0.12147E-05   -0.26931E-04  2173   0.682E-02    0.132E-02
RMM:   9    -0.837588955705E+02   -0.11684E-05   -0.29397E-05  1562   0.416E-02
  29 F= -.86953699E+02 E0= -.86950329E+02  d E =-.180213E-01
       N       E                     dE             d eps       ncg     rms          rms(c)
DAV:   1    -0.837584102641E+02    0.48414E-03   -0.18663E-01  2400   0.174E+00    0.108E-01
RMM:   2    -0.837587843471E+02   -0.37408E-03   -0.49609E-03  2566   0.421E-01    0.640E-02
RMM:   3    -0.837589393868E+02   -0.15504E-03   -0.10168E-03  2580   0.157E-01    0.527E-02
RMM:   4    -0.837588341798E+02    0.10521E-03   -0.20480E-04  2188   0.790E-02    0.265E-02
RMM:   5    -0.837588388173E+02   -0.46375E-05   -0.50698E-05  1673   0.463E-02
  30 F= -.86954496E+02 E0= -.86951194E+02  d E =-.188187E-01
       N       E                     dE             d eps       ncg     rms          rms(c)
DAV:   1    -0.837735147284E+02   -0.14681E-01   -0.20347E+00  2112   0.597E+00    0.326E-01
RMM:   2    -0.837790082474E+02   -0.54935E-02   -0.60921E-02  2471   0.148E+00    0.199E-01
RMM:   3    -0.837800939570E+02   -0.10857E-02   -0.96392E-03  2622   0.515E-01    0.163E-01
RMM:   4    -0.837793349849E+02    0.75897E-03   -0.17522E-03  2578   0.219E-01    0.101E-01
RMM:   5    -0.837793114380E+02    0.23547E-04   -0.63865E-04  2463   0.133E-01    0.582E-02
RMM:   6    -0.837792787185E+02    0.32720E-04   -0.21388E-04  2176   0.104E-01    0.152E-02
RMM:   7    -0.837792888492E+02   -0.10131E-04   -0.81599E-05  1802   0.385E-02    0.709E-03
RMM:   8    -0.837792893349E+02   -0.48566E-06   -0.12744E-05  1350   0.310E-02
  31 F= -.86972016E+02 E0= -.86968498E+02  d E =-.175192E-01
       N       E                     dE             d eps       ncg     rms          rms(c)
DAV:   1    -0.837809191326E+02   -0.16303E-02   -0.49602E+00  2000   0.934E+00    0.514E-01
RMM:   2    -0.837945121434E+02   -0.13593E-01   -0.14992E-01  2575   0.221E+00    0.302E-01
RMM:   3    -0.837971920856E+02   -0.26799E-02   -0.21877E-02  2613   0.776E-01    0.258E-01
RMM:   4    -0.837950595999E+02    0.21325E-02   -0.36609E-03  2516   0.338E-01    0.157E-01
RMM:   5    -0.837950628255E+02   -0.32256E-05   -0.15699E-03  2564   0.202E-01    0.916E-02
RMM:   6    -0.837949755797E+02    0.87246E-04   -0.55055E-04  2271   0.159E-01    0.234E-02
RMM:   7    -0.837949961125E+02   -0.20533E-04   -0.21914E-04  2194   0.512E-02    0.124E-02
RMM:   8    -0.837949942536E+02    0.18589E-05   -0.38418E-05  1591   0.449E-02
  32 F= -.86983141E+02 E0= -.86979302E+02  d E =-.286443E-01
       N       E                     dE             d eps       ncg     rms          rms(c)
DAV:   1    -0.838087472162E+02   -0.13751E-01   -0.54063E+00  2000   0.980E+00    0.485E-01
RMM:   2    -0.838225095891E+02   -0.13762E-01   -0.15021E-01  2673   0.214E+00    0.283E-01
RMM:   3    -0.838246489122E+02   -0.21393E-02   -0.20624E-02  2688   0.740E-01    0.239E-01
RMM:   4    -0.838227582494E+02    0.18907E-02   -0.35708E-03  2513   0.330E-01    0.140E-01
RMM:   5    -0.838227412679E+02    0.16981E-04   -0.17320E-03  2648   0.202E-01    0.809E-02
RMM:   6    -0.838226382113E+02    0.10306E-03   -0.46492E-04  2294   0.143E-01    0.219E-02
RMM:   7    -0.838226741603E+02   -0.35949E-04   -0.26002E-04  2261   0.523E-02    0.125E-02
RMM:   8    -0.838226718860E+02    0.22743E-05   -0.48524E-05  1736   0.555E-02
  33 F= -.87006412E+02 E0= -.87002307E+02  d E =-.232716E-01
       N       E                     dE             d eps       ncg     rms          rms(c)
DAV:   1    -0.838218810940E+02    0.79307E-03   -0.73145E+00  2000   0.114E+01    0.561E-01
RMM:   2    -0.838403890262E+02   -0.18508E-01   -0.20137E-01  2677   0.245E+00    0.331E-01
RMM:   3    -0.838430127217E+02   -0.26237E-02   -0.26612E-02  2679   0.844E-01    0.277E-01
RMM:   4    -0.838405938880E+02    0.24188E-02   -0.48377E-03  2509   0.383E-01    0.165E-01
RMM:   5    -0.838405710726E+02    0.22815E-04   -0.24956E-03  2672   0.241E-01    0.937E-02
RMM:   6    -0.838404176343E+02    0.15344E-03   -0.59473E-04  2309   0.162E-01    0.268E-02
RMM:   7    -0.838404680915E+02   -0.50457E-04   -0.38218E-04  2358   0.617E-02    0.140E-02
RMM:   8    -0.838404643441E+02    0.37474E-05   -0.62604E-05  1793   0.539E-02
  34 F= -.87019100E+02 E0= -.87014689E+02  d E =-.359597E-01
       N       E                     dE             d eps       ncg     rms          rms(c)
DAV:   1    -0.838411255947E+02   -0.65750E-03   -0.72851E-01  2368   0.359E+00    0.173E-01
RMM:   2    -0.838428261288E+02   -0.17005E-02   -0.19104E-02  2624   0.771E-01    0.106E-01
RMM:   3    -0.838431217477E+02   -0.29562E-03   -0.28655E-03  2719   0.270E-01    0.862E-02
RMM:   4    -0.838429029323E+02    0.21882E-03   -0.51886E-04  2425   0.121E-01    0.513E-02
RMM:   5    -0.838428914235E+02    0.11509E-04   -0.21440E-04  2302   0.761E-02    0.287E-02
RMM:   6    -0.838428845221E+02    0.69013E-05   -0.66135E-05  1820   0.563E-02
  35 F= -.87019919E+02 E0= -.87015411E+02  d E =-.367788E-01
       N       E                     dE             d eps       ncg     rms          rms(c)
DAV:   1    -0.838532056225E+02   -0.10314E-01   -0.10205E+00  2064   0.409E+00    0.235E-01
RMM:   2    -0.838559158848E+02   -0.27103E-02   -0.29838E-02  2486   0.102E+00    0.132E-01
RMM:   3    -0.838562811523E+02   -0.36527E-03   -0.42795E-03  2749   0.315E-01    0.793E-02
RMM:   4    -0.838564082119E+02   -0.12706E-03   -0.87765E-04  2542   0.147E-01    0.646E-02
RMM:   5    -0.838562976728E+02    0.11054E-03   -0.27862E-04  2295   0.929E-02    0.335E-02
RMM:   6    -0.838562584857E+02    0.39187E-04   -0.69572E-05  1787   0.653E-02    0.100E-02
RMM:   7    -0.838562643994E+02   -0.59138E-05   -0.46755E-05  1648   0.321E-02
  36 F= -.87030355E+02 E0= -.87025734E+02  d E =-.104357E-01
       N       E                     dE             d eps       ncg     rms          rms(c)
DAV:   1    -0.838546453542E+02    0.16131E-02   -0.91578E+00  2000   0.123E+01    0.714E-01
RMM:   2    -0.838792115565E+02   -0.24566E-01   -0.27181E-01  2498   0.300E+00    0.397E-01
RMM:   3    -0.838824859214E+02   -0.32744E-02   -0.38303E-02  2776   0.911E-01    0.258E-01
RMM:   4    -0.838834807105E+02   -0.99479E-03   -0.82112E-03  2629   0.430E-01    0.223E-01
RMM:   5    -0.838820944185E+02    0.13863E-02   -0.26401E-03  2559   0.272E-01    0.100E-01
RMM:   6    -0.838819197910E+02    0.17463E-03   -0.76122E-04  2292   0.191E-01    0.367E-02
RMM:   7    -0.838819376118E+02   -0.17821E-04   -0.30460E-04  2318   0.666E-02    0.188E-02
RMM:   8    -0.838819342610E+02    0.33508E-05   -0.93424E-05  1907   0.540E-02
  37 F= -.87047288E+02 E0= -.87042306E+02  d E =-.273687E-01
       N       E                     dE             d eps       ncg     rms          rms(c)
DAV:   1    -0.838874968340E+02   -0.55592E-02   -0.12913E-01  2400   0.146E+00    0.853E-02
RMM:   2    -0.838878825161E+02   -0.38568E-03   -0.41848E-03  2588   0.375E-01    0.465E-02
RMM:   3    -0.838879391066E+02   -0.56590E-04   -0.58021E-04  2461   0.110E-01    0.280E-02
RMM:   4    -0.838879572691E+02   -0.18163E-04   -0.10907E-04  1982   0.641E-02    0.243E-02
RMM:   5    -0.838879394640E+02    0.17805E-04   -0.29372E-05  1516   0.411E-02    0.957E-03
RMM:   6    -0.838879405053E+02   -0.10413E-05   -0.11735E-05  1279   0.328E-02
  38 F= -.87052197E+02 E0= -.87047176E+02  d E =-.490880E-02
       N       E                     dE             d eps       ncg     rms          rms(c)
DAV:   1    -0.838999369879E+02   -0.11998E-01   -0.11556E+00  2000   0.436E+00    0.254E-01
RMM:   2    -0.839032205717E+02   -0.32836E-02   -0.35958E-02  2524   0.111E+00    0.142E-01
RMM:   3    -0.839036760346E+02   -0.45546E-03   -0.47561E-03  2735   0.334E-01    0.928E-02
RMM:   4    -0.839037488155E+02   -0.72781E-04   -0.10425E-03  2595   0.155E-01    0.752E-02
RMM:   5    -0.839036066125E+02    0.14220E-03   -0.35482E-04  2372   0.104E-01    0.352E-02
RMM:   6    -0.839035746898E+02    0.31923E-04   -0.84664E-05  1863   0.707E-02    0.103E-02
RMM:   7    -0.839035816448E+02   -0.69550E-05   -0.45410E-05  1635   0.324E-02
  39 F= -.87064562E+02 E0= -.87059417E+02  d E =-.172735E-01
       N       E                     dE             d eps       ncg     rms          rms(c)
DAV:   1    -0.839102154355E+02   -0.66407E-02   -0.46051E+00  2000   0.871E+00    0.511E-01
RMM:   2    -0.839234096644E+02   -0.13194E-01   -0.14438E-01  2519   0.220E+00    0.285E-01
RMM:   3    -0.839252093058E+02   -0.17996E-02   -0.18767E-02  2744   0.661E-01    0.194E-01
RMM:   4    -0.839253429752E+02   -0.13367E-03   -0.41778E-03  2614   0.310E-01    0.156E-01
RMM:   5    -0.839248143676E+02    0.52861E-03   -0.14109E-03  2585   0.199E-01    0.719E-02
RMM:   6    -0.839246999704E+02    0.11440E-03   -0.37137E-04  2232   0.141E-01    0.223E-02
RMM:   7    -0.839247136352E+02   -0.13665E-04   -0.15884E-04  1984   0.463E-02    0.127E-02
RMM:   8    -0.839247135767E+02    0.58518E-07   -0.39894E-05  1627   0.535E-02
  40 F= -.87079213E+02 E0= -.87073814E+02  d E =-.319252E-01
       N       E                     dE             d eps       ncg     rms          rms(c)
DAV:   1    -0.838717581946E+02    0.52955E-01   -0.18205E+01  2000   0.173E+01    0.105E+00
RMM:   2    -0.839239069355E+02   -0.52149E-01   -0.57817E-01  2468   0.447E+00    0.576E-01
RMM:   3    -0.839330091936E+02   -0.91023E-02   -0.87498E-02  2749   0.140E+00    0.417E-01
RMM:   4    -0.839326077836E+02    0.40141E-03   -0.18525E-02  2654   0.654E-01    0.341E-01
RMM:   5    -0.839303893115E+02    0.22185E-02   -0.49855E-03  2582   0.359E-01    0.145E-01
RMM:   6    -0.839303265834E+02    0.62728E-04   -0.16160E-03  2344   0.262E-01    0.628E-02
RMM:   7    -0.839302898088E+02    0.36775E-04   -0.44922E-04  2346   0.113E-01    0.311E-02
RMM:   8    -0.839302887378E+02    0.10710E-05   -0.38762E-04  2400   0.703E-02    0.169E-02
RMM:   9    -0.839302853805E+02    0.33572E-05   -0.42697E-05  1656   0.368E-02
  41 F= -.87072117E+02 E0= -.87066168E+02  d E =-.248289E-01
       N       E                     dE             d eps       ncg     rms          rms(c)
DAV:   1    -0.839070682800E+02    0.23220E-01   -0.75897E+00  2000   0.112E+01    0.661E-01
RMM:   2    -0.839296854163E+02   -0.22617E-01   -0.24085E-01  2593   0.283E+00    0.356E-01
RMM:   3    -0.839320267014E+02   -0.23413E-02   -0.30914E-02  2722   0.846E-01    0.212E-01
RMM:   4    -0.839326585603E+02   -0.63186E-03   -0.56911E-03  2517   0.395E-01    0.155E-01
RMM:   5    -0.839325080522E+02    0.15051E-03   -0.21859E-03  2607   0.244E-01    0.101E-01
RMM:   6    -0.839319886990E+02    0.51935E-03   -0.55736E-04  2269   0.167E-01    0.255E-02
RMM:   7    -0.839320254878E+02   -0.36789E-04   -0.41829E-04  2173   0.577E-02    0.159E-02
RMM:   8    -0.839320197185E+02    0.57693E-05   -0.52189E-05  1714   0.548E-02
  42 F= -.87082008E+02 E0= -.87076411E+02  d E =-.347201E-01
       N       E                     dE             d eps       ncg     rms          rms(c)
DAV:   1    -0.839372749987E+02   -0.52495E-02   -0.13428E+00  2016   0.475E+00    0.257E-01
RMM:   2    -0.839408829486E+02   -0.36079E-02   -0.39153E-02  2554   0.113E+00    0.142E-01
RMM:   3    -0.839412521462E+02   -0.36920E-03   -0.51149E-03  2757   0.344E-01    0.822E-02
RMM:   4    -0.839412953578E+02   -0.43212E-04   -0.87934E-04  2469   0.164E-01    0.491E-02
RMM:   5    -0.839412842172E+02    0.11141E-04   -0.22135E-04  2190   0.977E-02    0.205E-02
RMM:   6    -0.839412715737E+02    0.12643E-04   -0.73611E-05  1815   0.434E-02    0.114E-02
RMM:   7    -0.839412714582E+02    0.11546E-06   -0.19143E-05  1405   0.268E-02
  43 F= -.87087994E+02 E0= -.87082263E+02  d E =-.598540E-02
       N       E                     dE             d eps       ncg     rms          rms(c)
DAV:   1    -0.839252752313E+02    0.15996E-01   -0.12099E+01  2000   0.142E+01    0.795E-01
RMM:   2    -0.839592291003E+02   -0.33954E-01   -0.36441E-01  2540   0.344E+00    0.435E-01
RMM:   3    -0.839624649940E+02   -0.32359E-02   -0.47528E-02  2815   0.103E+00    0.264E-01
RMM:   4    -0.839630238506E+02   -0.55886E-03   -0.85398E-03  2572   0.471E-01    0.173E-01
RMM:   5    -0.839630738773E+02   -0.50027E-04   -0.24480E-03  2422   0.299E-01    0.107E-01
RMM:   6    -0.839624804860E+02    0.59339E-03   -0.96275E-04  2513   0.162E-01    0.424E-02
RMM:   7    -0.839624742539E+02    0.62321E-05   -0.25777E-04  2298   0.680E-02    0.194E-02
RMM:   8    -0.839624736298E+02    0.62410E-06   -0.10509E-04  1961   0.484E-02    0.877E-03
RMM:   9    -0.839624741214E+02   -0.49157E-06   -0.21188E-05  1387   0.289E-02
  44 F= -.87099539E+02 E0= -.87093415E+02  d E =-.175309E-01
       N       E                     dE             d eps       ncg     rms          rms(c)
DAV:   1    -0.838191665130E+02    0.14331E+00   -0.48069E+01  2000   0.283E+01    0.174E+00
RMM:   2    -0.839644608244E+02   -0.14529E+00   -0.15747E+00  2534   0.697E+00    0.889E-01
RMM:   3    -0.839794946428E+02   -0.15034E-01   -0.20423E-01  2841   0.208E+00    0.622E-01
RMM:   4    -0.839868736701E+02   -0.73790E-02   -0.43938E-02  2679   0.990E-01    0.564E-01
RMM:   5    -0.839784526655E+02    0.84210E-02   -0.16079E-02  2546   0.644E-01    0.256E-01
RMM:   6    -0.839774626712E+02    0.98999E-03   -0.50829E-03  2402   0.442E-01    0.117E-01
RMM:   7    -0.839773829112E+02    0.79760E-04   -0.17054E-03  2522   0.176E-01    0.633E-02
RMM:   8    -0.839773717519E+02    0.11159E-04   -0.13795E-03  2591   0.135E-01    0.329E-02
RMM:   9    -0.839773483324E+02    0.23420E-04   -0.16383E-04  2105   0.610E-02    0.201E-02
RMM:  10    -0.839773622838E+02   -0.13951E-04   -0.37751E-04  2053   0.568E-02    0.244E-02
RMM:  11    -0.839773488235E+02    0.13460E-04   -0.56927E-05  1561   0.476E-02    0.947E-03
RMM:  12    -0.839773726280E+02   -0.23804E-04   -0.99305E-05  1709   0.348E-02    0.122E-02
RMM:  13    -0.839773937943E+02   -0.21166E-04   -0.16953E-05  1360   0.328E-02    0.104E-02
RMM:  14    -0.839774029664E+02   -0.91720E-05   -0.14690E-05  1343   0.171E-02
  45 F= -.87095787E+02 E0= -.87088975E+02  d E =-.137786E-01
       N       E                     dE             d eps       ncg     rms          rms(c)
DAV:   1    -0.839164937930E+02    0.60900E-01   -0.17788E+01  2000   0.171E+01    0.989E-01
RMM:   2    -0.839679196188E+02   -0.51426E-01   -0.55875E-01  2622   0.419E+00    0.519E-01
RMM:   3    -0.839738998569E+02   -0.59802E-02   -0.73643E-02  2724   0.129E+00    0.353E-01
RMM:   4    -0.839744600815E+02   -0.56022E-03   -0.11925E-02  2527   0.614E-01    0.298E-01
RMM:   5    -0.839732425769E+02    0.12175E-02   -0.67227E-03  2577   0.383E-01    0.169E-01
RMM:   6    -0.839725105431E+02    0.73203E-03   -0.24364E-03  2311   0.308E-01    0.526E-02
RMM:   7    -0.839725333951E+02   -0.22852E-04   -0.10033E-03  2513   0.968E-02    0.279E-02
RMM:   8    -0.839725236278E+02    0.97673E-05   -0.25871E-04  2212   0.873E-02    0.146E-02
RMM:   9    -0.839725312840E+02   -0.76562E-05   -0.59862E-05  1745   0.400E-02
  46 F= -.87102175E+02 E0= -.87095756E+02  d E =-.201669E-01
       N       E                     dE             d eps       ncg     rms          rms(c)
DAV:   1    -0.839771874439E+02   -0.46638E-02   -0.15535E-01  2400   0.165E+00    0.841E-02
RMM:   2    -0.839775810884E+02   -0.39364E-03   -0.40691E-03  2702   0.375E-01    0.604E-02
RMM:   3    -0.839775407109E+02    0.40378E-04   -0.72126E-04  2458   0.139E-01    0.448E-02
RMM:   4    -0.839774896889E+02    0.51022E-04   -0.11260E-04  1943   0.617E-02    0.264E-02
RMM:   5    -0.839774953501E+02   -0.56611E-05   -0.57191E-05  1746   0.457E-02
  47 F= -.87106729E+02 E0= -.87100290E+02  d E =-.455358E-02
       N       E                     dE             d eps       ncg     rms          rms(c)
DAV:   1    -0.839805306828E+02   -0.30410E-02   -0.61922E-01  2000   0.330E+00    0.172E-01
RMM:   2    -0.839820364195E+02   -0.15057E-02   -0.16288E-02  2738   0.724E-01    0.121E-01
RMM:   3    -0.839819106075E+02    0.12581E-03   -0.27510E-03  2542   0.277E-01    0.907E-02
RMM:   4    -0.839816736008E+02    0.23701E-03   -0.49733E-04  2388   0.118E-01    0.530E-02
RMM:   5    -0.839816618608E+02    0.11740E-04   -0.21821E-04  2229   0.824E-02    0.314E-02
RMM:   6    -0.839816566444E+02    0.52164E-05   -0.10673E-04  1962   0.553E-02    0.697E-03
RMM:   7    -0.839816607897E+02   -0.41453E-05   -0.26121E-05  1480   0.325E-02
  48 F= -.87110084E+02 E0= -.87103606E+02  d E =-.790867E-02
       N       E                     dE             d eps       ncg     rms          rms(c)
DAV:   1    -0.839838875420E+02   -0.22309E-02   -0.21569E-02  2336   0.649E-01    0.362E-02
RMM:   2    -0.839839705725E+02   -0.83031E-04   -0.81347E-04  2636   0.182E-01    0.290E-02
RMM:   3    -0.839839506910E+02    0.19882E-04   -0.12877E-04  2030   0.644E-02    0.183E-02
RMM:   4    -0.839839444372E+02    0.62538E-05   -0.22702E-05  1423   0.408E-02
  49 F= -.87112175E+02 E0= -.87105694E+02  d E =-.209140E-02
       N       E                     dE             d eps       ncg     rms          rms(c)
DAV:   1    -0.839891783870E+02   -0.52277E-02   -0.19395E-01  2016   0.195E+00    0.110E-01
RMM:   2    -0.839898504170E+02   -0.67203E-03   -0.68863E-03  2657   0.514E-01    0.850E-02
RMM:   3    -0.839896953913E+02    0.15503E-03   -0.11183E-03  2534   0.183E-01    0.559E-02
RMM:   4    -0.839896239167E+02    0.71475E-04   -0.20765E-04  2230   0.812E-02    0.339E-02
RMM:   5    -0.839896184656E+02    0.54511E-05   -0.85703E-05  1901   0.547E-02
  50 F= -.87117278E+02 E0= -.87110765E+02  d E =-.719441E-02
       N       E                     dE             d eps       ncg     rms          rms(c)
DAV:   1    -0.839939514274E+02   -0.43275E-02   -0.77615E-01  2000   0.389E+00    0.216E-01
RMM:   2    -0.839965105260E+02   -0.25591E-02   -0.26800E-02  2678   0.982E-01    0.159E-01
RMM:   3    -0.839960346664E+02    0.47586E-03   -0.42277E-03  2564   0.357E-01    0.107E-01
RMM:   4    -0.839957314422E+02    0.30322E-03   -0.75449E-04  2526   0.150E-01    0.635E-02
RMM:   5    -0.839956899151E+02    0.41527E-04   -0.29132E-04  2309   0.966E-02    0.363E-02
RMM:   6    -0.839956907581E+02   -0.84291E-06   -0.17836E-04  2219   0.637E-02    0.915E-03
RMM:   7    -0.839956910197E+02   -0.26164E-06   -0.26702E-05  1517   0.336E-02
  51 F= -.87122235E+02 E0= -.87115663E+02  d E =-.121514E-01
       N       E                     dE             d eps       ncg     rms          rms(c)
DAV:   1    -0.839959814187E+02   -0.29066E-03   -0.33656E-02  2416   0.807E-01    0.451E-02
RMM:   2    -0.839961023795E+02   -0.12096E-03   -0.12603E-03  2651   0.222E-01    0.350E-02
RMM:   3    -0.839960770792E+02    0.25300E-04   -0.19187E-04  2170   0.782E-02    0.232E-02
RMM:   4    -0.839960661318E+02    0.10947E-04   -0.33040E-05  1530   0.463E-02    0.141E-02
RMM:   5    -0.839960655435E+02    0.58833E-06   -0.14152E-05  1307   0.310E-02
  52 F= -.87122384E+02 E0= -.87115797E+02  d E =-.122998E-01
       N       E                     dE             d eps       ncg     rms          rms(c)
DAV:   1    -0.839968441565E+02   -0.77802E-03   -0.63778E-03  2680   0.339E-01    0.222E-02
RMM:   2    -0.839968582198E+02   -0.14063E-04   -0.22488E-04  2326   0.994E-02    0.154E-02
RMM:   3    -0.839968594613E+02   -0.12416E-05   -0.41128E-05  1416   0.369E-02
  53 F= -.87123133E+02 E0= -.87116556E+02  d E =-.749657E-03
       N       E                     dE             d eps       ncg     rms          rms(c)
DAV:   1    -0.839982933719E+02   -0.14352E-02   -0.56473E-02  2192   0.101E+00    0.723E-02
RMM:   2    -0.839983635349E+02   -0.70163E-04   -0.18859E-03  2451   0.283E-01    0.472E-02
RMM:   3    -0.839984025051E+02   -0.38970E-04   -0.46228E-04  2498   0.103E-01    0.377E-02
RMM:   4    -0.839983617731E+02    0.40732E-04   -0.11403E-04  1993   0.586E-02    0.241E-02
RMM:   5    -0.839983565834E+02    0.51897E-05   -0.28132E-05  1514   0.349E-02
  54 F= -.87124499E+02 E0= -.87117904E+02  d E =-.211516E-02
       N       E                     dE             d eps       ncg     rms          rms(c)
DAV:   1    -0.839973109383E+02    0.10508E-02   -0.22544E-01  2032   0.201E+00    0.148E-01
RMM:   2    -0.839976201355E+02   -0.30920E-03   -0.78084E-03  2592   0.545E-01    0.905E-02
RMM:   3    -0.839977280591E+02   -0.10792E-03   -0.16822E-03  2643   0.205E-01    0.753E-02
RMM:   4    -0.839975088904E+02    0.21917E-03   -0.38935E-04  2344   0.991E-02    0.428E-02
RMM:   5    -0.839975001265E+02    0.87639E-05   -0.12574E-04  2071   0.610E-02    0.268E-02
RMM:   6    -0.839974980290E+02    0.20975E-05   -0.10132E-04  1907   0.546E-02    0.120E-02
RMM:   7    -0.839974963792E+02    0.16498E-05   -0.20012E-05  1419   0.285E-02
  55 F= -.87123380E+02 E0= -.87116753E+02  d E =-.996366E-03
       N       E                     dE             d eps       ncg     rms          rms(c)
DAV:   1    -0.839985453273E+02   -0.10473E-02   -0.11258E-01  2048   0.142E+00    0.101E-01
RMM:   2    -0.839986974542E+02   -0.15213E-03   -0.36333E-03  2560   0.369E-01    0.624E-02
RMM:   3    -0.839987428337E+02   -0.45379E-04   -0.75474E-04  2589   0.139E-01    0.510E-02
RMM:   4    -0.839986410389E+02    0.10179E-03   -0.19135E-04  2186   0.709E-02    0.284E-02
RMM:   5    -0.839986356177E+02    0.54212E-05   -0.50576E-05  1698   0.449E-02
  56 F= -.87124700E+02 E0= -.87118087E+02  d E =-.231671E-02
       N       E                     dE             d eps       ncg     rms          rms(c)
DAV:   1    -0.839992199623E+02   -0.57892E-03   -0.23696E-03  2408   0.209E-01    0.145E-02
RMM:   2    -0.839992342953E+02   -0.14333E-04   -0.14775E-04  2244   0.802E-02    0.115E-02
RMM:   3    -0.839992341229E+02    0.17248E-06   -0.19806E-05  1246   0.276E-02
  57 F= -.87125228E+02 E0= -.87118621E+02  d E =-.527821E-03
       N       E                     dE             d eps       ncg     rms          rms(c)
DAV:   1    -0.840005753309E+02   -0.13410E-02   -0.21107E-02  2080   0.600E-01    0.488E-02
RMM:   2    -0.840006562430E+02   -0.80912E-04   -0.11567E-03  2399   0.229E-01    0.367E-02
RMM:   3    -0.840006716774E+02   -0.15434E-04   -0.25950E-04  2330   0.766E-02    0.271E-02
RMM:   4    -0.840006572420E+02    0.14435E-04   -0.43351E-05  1629   0.429E-02    0.189E-02
RMM:   5    -0.840006533909E+02    0.38511E-05   -0.18301E-05  1349   0.300E-02
  58 F= -.87126436E+02 E0= -.87119811E+02  d E =-.173597E-02
       N       E                     dE             d eps       ncg     rms          rms(c)
DAV:   1    -0.840015338130E+02   -0.87657E-03   -0.83434E-02  2032   0.119E+00    0.981E-02
RMM:   2    -0.840018769694E+02   -0.34316E-03   -0.46309E-03  2487   0.434E-01    0.695E-02
RMM:   3    -0.840019075540E+02   -0.30585E-04   -0.95327E-04  2624   0.147E-01    0.513E-02
RMM:   4    -0.840018377233E+02    0.69831E-04   -0.17575E-04  2202   0.631E-02    0.335E-02
RMM:   5    -0.840018276575E+02    0.10066E-04   -0.70059E-05  1840   0.476E-02    0.179E-02
RMM:   6    -0.840018240293E+02    0.36282E-05   -0.37815E-05  1543   0.401E-02
  59 F= -.87127189E+02 E0= -.87120523E+02  d E =-.248863E-02
       N       E                     dE             d eps       ncg     rms          rms(c)
DAV:   1    -0.840030743662E+02   -0.12467E-02   -0.11761E-02  2448   0.440E-01    0.371E-02
RMM:   2    -0.840031297681E+02   -0.55402E-04   -0.77685E-04  2493   0.184E-01    0.278E-02
RMM:   3    -0.840031358189E+02   -0.60508E-05   -0.12967E-04  2130   0.541E-02    0.209E-02
RMM:   4    -0.840031285576E+02    0.72613E-05   -0.26701E-05  1451   0.400E-02
  60 F= -.87128201E+02 E0= -.87121507E+02  d E =-.101187E-02
       N       E                     dE             d eps       ncg     rms          rms(c)
DAV:   1    -0.840044429536E+02   -0.13071E-02   -0.60203E-02  2032   0.997E-01    0.863E-02
RMM:   2    -0.840047099063E+02   -0.26695E-03   -0.37585E-03  2501   0.412E-01    0.627E-02
RMM:   3    -0.840047586190E+02   -0.48713E-04   -0.74038E-04  2596   0.126E-01    0.485E-02
RMM:   4    -0.840047130558E+02    0.45563E-04   -0.18961E-04  2212   0.673E-02    0.323E-02
RMM:   5    -0.840046989240E+02    0.14132E-04   -0.42724E-05  1613   0.437E-02    0.177E-02
RMM:   6    -0.840046965027E+02    0.24213E-05   -0.16957E-05  1333   0.378E-02
  61 F= -.87129107E+02 E0= -.87122377E+02  d E =-.191828E-02
       N       E                     dE             d eps       ncg     rms          rms(c)
DAV:   1    -0.840053835305E+02   -0.68461E-03   -0.77807E-03  2336   0.389E-01    0.224E-02
RMM:   2    -0.840054062234E+02   -0.22693E-04   -0.27742E-04  2474   0.111E-01    0.155E-02
RMM:   3    -0.840054069025E+02   -0.67911E-06   -0.52049E-05  1571   0.420E-02
  62 F= -.87129639E+02 E0= -.87122892E+02  d E =-.531678E-03
       N       E                     dE             d eps       ncg     rms          rms(c)
DAV:   1    -0.840069743778E+02   -0.15682E-02   -0.71285E-02  2032   0.117E+00    0.669E-02
RMM:   2    -0.840071707093E+02   -0.19633E-03   -0.24603E-03  2549   0.329E-01    0.477E-02
RMM:   3    -0.840071909680E+02   -0.20259E-04   -0.53609E-04  2505   0.120E-01    0.362E-02
RMM:   4    -0.840071601649E+02    0.30803E-04   -0.80561E-05  1866   0.569E-02    0.229E-02
RMM:   5    -0.840071555271E+02    0.46378E-05   -0.26673E-05  1447   0.410E-02
  63 F= -.87130854E+02 E0= -.87124077E+02  d E =-.174636E-02
       N       E                     dE             d eps       ncg     rms          rms(c)
DAV:   1    -0.840083287398E+02   -0.11686E-02   -0.28280E-01  2000   0.234E+00    0.126E-01
RMM:   2    -0.840091451962E+02   -0.81646E-03   -0.93220E-03  2635   0.601E-01    0.879E-02
RMM:   3    -0.840091584682E+02   -0.13272E-04   -0.17650E-03  2618   0.219E-01    0.677E-02
RMM:   4    -0.840090275505E+02    0.13092E-03   -0.27444E-04  2306   0.930E-02    0.406E-02
RMM:   5    -0.840090179531E+02    0.95974E-05   -0.99247E-05  1970   0.612E-02
  64 F= -.87131658E+02 E0= -.87124808E+02  d E =-.255089E-02
       N       E                     dE             d eps       ncg     rms          rms(c)
DAV:   1    -0.840093958135E+02   -0.36826E-03   -0.43701E-03  2728   0.288E-01    0.163E-02
RMM:   2    -0.840094041996E+02   -0.83861E-05   -0.12052E-04  2041   0.752E-02    0.983E-03
RMM:   3    -0.840094075933E+02   -0.33936E-05   -0.36573E-05  1446   0.350E-02
  65 F= -.87131935E+02 E0= -.87125079E+02  d E =-.277356E-03
       N       E                     dE             d eps       ncg     rms          rms(c)
DAV:   1    -0.840102697978E+02   -0.86560E-03   -0.41405E-02  2096   0.846E-01    0.443E-02
RMM:   2    -0.840103516474E+02   -0.81850E-04   -0.10754E-03  2446   0.227E-01    0.297E-02
RMM:   3    -0.840103732110E+02   -0.21564E-04   -0.27798E-04  2306   0.844E-02    0.234E-02
RMM:   4    -0.840103610637E+02    0.12147E-04   -0.40751E-05  1576   0.456E-02    0.161E-02
RMM:   5    -0.840103581036E+02    0.29601E-05   -0.14784E-05  1308   0.307E-02
  66 F= -.87132550E+02 E0= -.87125670E+02  d E =-.891683E-03
       N       E                     dE             d eps       ncg     rms          rms(c)
DAV:   1    -0.840110033348E+02   -0.64227E-03   -0.16429E-01  2032   0.168E+00    0.847E-02
RMM:   2    -0.840113608988E+02   -0.35756E-03   -0.41512E-03  2670   0.387E-01    0.555E-02
RMM:   3    -0.840114035129E+02   -0.42614E-04   -0.80582E-04  2580   0.143E-01    0.464E-02
RMM:   4    -0.840113353277E+02    0.68185E-04   -0.11373E-04  1980   0.630E-02    0.273E-02
RMM:   5    -0.840113298523E+02    0.54754E-05   -0.46322E-05  1630   0.456E-02
  67 F= -.87132853E+02 E0= -.87125920E+02  d E =-.119448E-02
       N       E                     dE             d eps       ncg     rms          rms(c)
DAV:   1    -0.840112129695E+02    0.12236E-03   -0.76471E-03  2400   0.362E-01    0.180E-02
RMM:   2    -0.840112329356E+02   -0.19966E-04   -0.23838E-04  2214   0.102E-01    0.134E-02
RMM:   3    -0.840112343196E+02   -0.13840E-05   -0.45201E-05  1532   0.387E-02
  68 F= -.87132896E+02 E0= -.87125981E+02  d E =-.123784E-02
       N       E                     dE             d eps       ncg     rms          rms(c)
DAV:   1    -0.840113590099E+02   -0.12607E-03   -0.19789E-04  2896   0.666E-02    0.746E-03
RMM:   2    -0.840113604712E+02   -0.14613E-05   -0.11032E-05  1149   0.202E-02
  69 F= -.87132978E+02 E0= -.87126063E+02  d E =-.816782E-04
       N       E                     dE             d eps       ncg     rms          rms(c)
DAV:   1    -0.840117157392E+02   -0.35673E-03   -0.14923E-03  2176   0.147E-01    0.124E-02
RMM:   2    -0.840117224854E+02   -0.67461E-05   -0.81310E-05  1649   0.558E-02
  70 F= -.87133206E+02 E0= -.87126292E+02  d E =-.310350E-03
       N       E                     dE             d eps       ncg     rms          rms(c)
DAV:   1    -0.840123361505E+02   -0.62041E-03   -0.59255E-03  2032   0.288E-01    0.279E-02
RMM:   2    -0.840123557415E+02   -0.19591E-04   -0.27279E-04  2461   0.953E-02    0.166E-02
RMM:   3    -0.840123543338E+02    0.14077E-05   -0.27523E-05  1422   0.276E-02
  71 F= -.87133572E+02 E0= -.87126657E+02  d E =-.675846E-03
       N       E                     dE             d eps       ncg     rms          rms(c)
DAV:   1    -0.840131520501E+02   -0.79631E-03   -0.22887E-02  2032   0.560E-01    0.460E-02
RMM:   2    -0.840132332979E+02   -0.81248E-04   -0.10279E-03  2461   0.208E-01    0.302E-02
RMM:   3    -0.840132559228E+02   -0.22625E-04   -0.20423E-04  2162   0.661E-02    0.225E-02
RMM:   4    -0.840132470200E+02    0.89028E-05   -0.52399E-05  1649   0.427E-02
  72 F= -.87133933E+02 E0= -.87127016E+02  d E =-.103729E-02
       N       E                     dE             d eps       ncg     rms          rms(c)
DAV:   1    -0.840134612566E+02   -0.20533E-03   -0.76500E-04  2864   0.114E-01    0.102E-02
RMM:   2    -0.840134629901E+02   -0.17336E-05   -0.33248E-05  1367   0.382E-02
  73 F= -.87134065E+02 E0= -.87127149E+02  d E =-.132100E-03
       N       E                     dE             d eps       ncg     rms          rms(c)
DAV:   1    -0.840139725154E+02   -0.51126E-03   -0.59040E-03  2096   0.300E-01    0.258E-02
RMM:   2    -0.840140063353E+02   -0.33820E-04   -0.29893E-04  2565   0.911E-02    0.214E-02
RMM:   3    -0.840139911772E+02    0.15158E-04   -0.31159E-05  1402   0.368E-02    0.145E-02
RMM:   4    -0.840139880778E+02    0.30994E-05   -0.82933E-06  1257   0.281E-02
  74 F= -.87134339E+02 E0= -.87127429E+02  d E =-.405719E-03
       N       E                     dE             d eps       ncg     rms          rms(c)
DAV:   1    -0.840143634410E+02   -0.37226E-03   -0.23077E-02  2032   0.581E-01    0.432E-02
RMM:   2    -0.840144347230E+02   -0.71282E-04   -0.85297E-04  2627   0.176E-01    0.281E-02
RMM:   3    -0.840144488992E+02   -0.14176E-04   -0.15673E-04  2005   0.624E-02    0.255E-02
RMM:   4    -0.840144286136E+02    0.20286E-04   -0.21986E-05  1411   0.398E-02    0.131E-02
RMM:   5    -0.840144284520E+02    0.16160E-06   -0.14822E-05  1337   0.248E-02
  75 F= -.87134277E+02 E0= -.87127375E+02  d E =-.344106E-03
       N       E                     dE             d eps       ncg     rms          rms(c)
DAV:   1    -0.840142614253E+02    0.16719E-03   -0.72946E-03  2048   0.326E-01    0.240E-02
RMM:   2    -0.840142873040E+02   -0.25879E-04   -0.28965E-04  2433   0.962E-02    0.161E-02
RMM:   3    -0.840142887008E+02   -0.13968E-05   -0.33240E-05  1381   0.348E-02
  76 F= -.87134417E+02 E0= -.87127505E+02  d E =-.484228E-03
       N       E                     dE             d eps       ncg     rms          rms(c)
DAV:   1    -0.840144934197E+02   -0.20612E-03   -0.10319E-03  2520   0.134E-01    0.944E-03
RMM:   2    -0.840144971299E+02   -0.37102E-05   -0.43542E-05  1387   0.425E-02
  77 F= -.87134501E+02 E0= -.87127590E+02  d E =-.835836E-04
       N       E                     dE             d eps       ncg     rms          rms(c)
DAV:   1    -0.840150801787E+02   -0.58676E-03   -0.94748E-03  2032   0.373E-01    0.297E-02
RMM:   2    -0.840151130423E+02   -0.32864E-04   -0.35294E-04  2538   0.109E-01    0.193E-02
RMM:   3    -0.840151115433E+02    0.14990E-05   -0.46122E-05  1494   0.423E-02
  78 F= -.87134741E+02 E0= -.87127835E+02  d E =-.323655E-03
       N       E                     dE             d eps       ncg     rms          rms(c)
DAV:   1    -0.840160759155E+02   -0.96287E-03   -0.37132E-02  2000   0.730E-01    0.576E-02
RMM:   2    -0.840161662513E+02   -0.90336E-04   -0.12025E-03  2448   0.228E-01    0.339E-02
RMM:   3    -0.840162064033E+02   -0.40152E-04   -0.26114E-04  2292   0.802E-02    0.266E-02
RMM:   4    -0.840161866407E+02    0.19763E-04   -0.59487E-05  1729   0.493E-02    0.152E-02
RMM:   5    -0.840161824277E+02    0.42130E-05   -0.14721E-05  1299   0.322E-02
  79 F= -.87135064E+02 E0= -.87128146E+02  d E =-.646806E-03
       N       E                     dE             d eps       ncg     rms          rms(c)
DAV:   1    -0.840173995978E+02   -0.12130E-02   -0.14878E-01  2000   0.145E+00    0.110E-01
RMM:   2    -0.840177327772E+02   -0.33318E-03   -0.44835E-03  2493   0.426E-01    0.600E-02
RMM:   3    -0.840178538198E+02   -0.12104E-03   -0.90445E-04  2556   0.140E-01    0.441E-02
RMM:   4    -0.840178039792E+02    0.49841E-04   -0.23005E-04  2264   0.830E-02    0.278E-02
RMM:   5    -0.840177872722E+02    0.16707E-04   -0.39158E-05  1613   0.422E-02    0.141E-02
RMM:   6    -0.840177858291E+02    0.14431E-05   -0.20203E-05  1375   0.387E-02
  80 F= -.87135176E+02 E0= -.87128247E+02  d E =-.758518E-03
       N       E                     dE             d eps       ncg     rms          rms(c)
DAV:   1    -0.840180113888E+02   -0.22412E-03   -0.22527E-03  2560   0.194E-01    0.111E-02
RMM:   2    -0.840180177592E+02   -0.63704E-05   -0.73716E-05  1606   0.579E-02
  81 F= -.87135262E+02 E0= -.87128329E+02  d E =-.857801E-04
       N       E                     dE             d eps       ncg     rms          rms(c)
DAV:   1    -0.840186445738E+02   -0.63319E-03   -0.21003E-02  2064   0.585E-01    0.352E-02
RMM:   2    -0.840186993070E+02   -0.54733E-04   -0.63804E-04  2585   0.143E-01    0.206E-02
RMM:   3    -0.840187071099E+02   -0.78029E-05   -0.85543E-05  1780   0.474E-02
  82 F= -.87135513E+02 E0= -.87128573E+02  d E =-.336942E-03
       N       E                     dE             d eps       ncg     rms          rms(c)
DAV:   1    -0.840197444161E+02   -0.10451E-02   -0.82659E-02  2000   0.116E+00    0.684E-02
RMM:   2    -0.840199944674E+02   -0.25005E-03   -0.26747E-03  2631   0.327E-01    0.435E-02
RMM:   3    -0.840200550768E+02   -0.60609E-04   -0.52437E-04  2347   0.112E-01    0.398E-02
RMM:   4    -0.840200127784E+02    0.42298E-04   -0.77492E-05  1821   0.627E-02    0.213E-02
RMM:   5    -0.840200108110E+02    0.19673E-05   -0.27791E-05  1465   0.391E-02
  83 F= -.87135941E+02 E0= -.87128992E+02  d E =-.765186E-03
       N       E                     dE             d eps       ncg     rms          rms(c)
DAV:   1    -0.840214369666E+02   -0.14242E-02   -0.33075E-01  2000   0.230E+00    0.129E-01
RMM:   2    -0.840222746407E+02   -0.83767E-03   -0.92966E-03  2541   0.589E-01    0.729E-02
RMM:   3    -0.840224148105E+02   -0.14017E-03   -0.16517E-03  2723   0.191E-01    0.474E-02
RMM:   4    -0.840224206437E+02   -0.58332E-05   -0.22574E-04  2229   0.896E-02    0.383E-02
RMM:   5    -0.840223906244E+02    0.30019E-04   -0.10526E-04  1922   0.569E-02    0.216E-02
RMM:   6    -0.840223802779E+02    0.10346E-04   -0.29347E-05  1522   0.468E-02    0.635E-03
RMM:   7    -0.840223828062E+02   -0.25283E-05   -0.17454E-05  1410   0.236E-02
  84 F= -.87136566E+02 E0= -.87129598E+02  d E =-.138997E-02
       N       E                     dE             d eps       ncg     rms          rms(c)
DAV:   1    -0.840224736653E+02   -0.93387E-04   -0.13316E+00  2000   0.461E+00    0.256E-01
RMM:   2    -0.840257612102E+02   -0.32875E-02   -0.36756E-02  2485   0.116E+00    0.149E-01
RMM:   3    -0.840262573244E+02   -0.49611E-03   -0.63870E-03  2766   0.387E-01    0.955E-02
RMM:   4    -0.840263200789E+02   -0.62755E-04   -0.92163E-04  2477   0.175E-01    0.751E-02
RMM:   5    -0.840262105553E+02    0.10952E-03   -0.50369E-04  2454   0.107E-01    0.458E-02
RMM:   6    -0.840261448729E+02    0.65682E-04   -0.11069E-04  1970   0.753E-02    0.120E-02
RMM:   7    -0.840261535472E+02   -0.86743E-05   -0.71291E-05  1692   0.308E-02
  85 F= -.87136857E+02 E0= -.87129853E+02  d E =-.168136E-02
       N       E                     dE             d eps       ncg     rms          rms(c)
DAV:   1    -0.840275778546E+02   -0.14330E-02   -0.13058E-01  2016   0.149E+00    0.817E-02
RMM:   2    -0.840279145412E+02   -0.33669E-03   -0.37920E-03  2474   0.392E-01    0.496E-02
RMM:   3    -0.840280037768E+02   -0.89236E-04   -0.80244E-04  2635   0.137E-01    0.387E-02
RMM:   4    -0.840279739153E+02    0.29861E-04   -0.95911E-05  1906   0.614E-02    0.269E-02
RMM:   5    -0.840279661393E+02    0.77761E-05   -0.40064E-05  1627   0.461E-02
  86 F= -.87137661E+02 E0= -.87130634E+02  d E =-.804062E-03
       N       E                     dE             d eps       ncg     rms          rms(c)
DAV:   1    -0.840290480796E+02   -0.10742E-02   -0.59492E-01  2000   0.318E+00    0.174E-01
RMM:   2    -0.840305266929E+02   -0.14786E-02   -0.16596E-02  2554   0.782E-01    0.102E-01
RMM:   3    -0.840309259886E+02   -0.39930E-03   -0.33554E-03  2734   0.276E-01    0.812E-02
RMM:   4    -0.840307548533E+02    0.17114E-03   -0.42707E-04  2333   0.121E-01    0.537E-02
RMM:   5    -0.840307322788E+02    0.22575E-04   -0.21787E-04  2248   0.771E-02    0.294E-02
RMM:   6    -0.840307206283E+02    0.11651E-04   -0.63429E-05  1770   0.568E-02    0.726E-03
RMM:   7    -0.840307241496E+02   -0.35213E-05   -0.25796E-05  1473   0.292E-02
  87 F= -.87138268E+02 E0= -.87131214E+02  d E =-.141071E-02
       N       E                     dE             d eps       ncg     rms          rms(c)
DAV:   1    -0.840322901873E+02   -0.15696E-02   -0.23151E-01  2032   0.196E+00    0.991E-02
RMM:   2    -0.840327789243E+02   -0.48874E-03   -0.53730E-03  2464   0.451E-01    0.612E-02
RMM:   3    -0.840328994426E+02   -0.12052E-03   -0.10171E-03  2675   0.160E-01    0.509E-02
RMM:   4    -0.840328279288E+02    0.71514E-04   -0.15242E-04  2132   0.707E-02    0.316E-02
RMM:   5    -0.840328220248E+02    0.59040E-05   -0.67699E-05  1792   0.508E-02
  88 F= -.87139301E+02 E0= -.87132208E+02  d E =-.103328E-02
       N       E                     dE             d eps       ncg     rms          rms(c)
DAV:   1    -0.840335585371E+02   -0.73061E-03   -0.20820E+00  2000   0.588E+00    0.297E-01
RMM:   2    -0.840378320219E+02   -0.42735E-02   -0.47299E-02  2589   0.128E+00    0.179E-01
RMM:   3    -0.840389539510E+02   -0.11219E-02   -0.85715E-03  2686   0.467E-01    0.154E-01
RMM:   4    -0.840381967194E+02    0.75723E-03   -0.13501E-03  2465   0.211E-01    0.902E-02
RMM:   5    -0.840381739941E+02    0.22725E-04   -0.64933E-04  2479   0.128E-01    0.487E-02
RMM:   6    -0.840381485419E+02    0.25452E-04   -0.18566E-04  2100   0.909E-02    0.114E-02
RMM:   7    -0.840381575810E+02   -0.90391E-05   -0.78169E-05  1763   0.360E-02
  89 F= -.87141455E+02 E0= -.87134287E+02  d E =-.318702E-02
       N       E                     dE             d eps       ncg     rms          rms(c)
DAV:   1    -0.840259276565E+02    0.12221E-01   -0.83749E+00  2000   0.117E+01    0.600E-01
RMM:   2    -0.840432922018E+02   -0.17365E-01   -0.19187E-01  2492   0.262E+00    0.362E-01
RMM:   3    -0.840477035460E+02   -0.44113E-02   -0.35987E-02  2701   0.950E-01    0.304E-01
RMM:   4    -0.840449030888E+02    0.28005E-02   -0.55257E-03  2521   0.420E-01    0.190E-01
RMM:   5    -0.840447251034E+02    0.17799E-03   -0.26332E-03  2540   0.257E-01    0.106E-01
RMM:   6    -0.840446086992E+02    0.11640E-03   -0.81783E-04  2277   0.188E-01    0.274E-02
RMM:   7    -0.840446382671E+02   -0.29568E-04   -0.32182E-04  2353   0.656E-02    0.134E-02
RMM:   8    -0.840446406433E+02   -0.23762E-05   -0.64006E-05  1771   0.452E-02
  90 F= -.87141629E+02 E0= -.87134332E+02  d E =-.336072E-02
       N       E                     dE             d eps       ncg     rms          rms(c)
DAV:   1    -0.840383191978E+02    0.63191E-02   -0.18222E+00  2000   0.547E+00    0.281E-01
RMM:   2    -0.840420376438E+02   -0.37184E-02   -0.41229E-02  2526   0.121E+00    0.167E-01
RMM:   3    -0.840429798502E+02   -0.94221E-03   -0.75717E-03  2700   0.427E-01    0.142E-01
RMM:   4    -0.840423381087E+02    0.64174E-03   -0.10706E-03  2458   0.187E-01    0.892E-02
RMM:   5    -0.840423188014E+02    0.19307E-04   -0.61600E-04  2450   0.121E-01    0.480E-02
RMM:   6    -0.840423021193E+02    0.16682E-04   -0.22208E-04  2132   0.939E-02    0.142E-02
RMM:   7    -0.840423047672E+02   -0.26480E-05   -0.65287E-05  1775   0.375E-02
  91 F= -.87142235E+02 E0= -.87134987E+02  d E =-.396646E-02
       N       E                     dE             d eps       ncg     rms          rms(c)
DAV:   1    -0.840431447850E+02   -0.84267E-03   -0.91962E-02  2144   0.123E+00    0.741E-02
RMM:   2    -0.840433449038E+02   -0.20012E-03   -0.24070E-03  2636   0.296E-01    0.421E-02
RMM:   3    -0.840434015053E+02   -0.56602E-04   -0.43553E-04  2314   0.101E-01    0.292E-02
RMM:   4    -0.840433853399E+02    0.16165E-04   -0.67950E-05  1734   0.572E-02    0.202E-02
RMM:   5    -0.840433781103E+02    0.72297E-05   -0.24632E-05  1432   0.410E-02
  92 F= -.87142734E+02 E0= -.87135442E+02  d E =-.499099E-03
       N       E                     dE             d eps       ncg     rms          rms(c)
DAV:   1    -0.840436111006E+02   -0.22576E-03   -0.15718E-02  2400   0.514E-01    0.314E-02
RMM:   2    -0.840436498831E+02   -0.38783E-04   -0.44003E-04  2453   0.128E-01    0.179E-02
RMM:   3    -0.840436600782E+02   -0.10195E-04   -0.78061E-05  1581   0.447E-02    0.122E-02
RMM:   4    -0.840436583527E+02    0.17254E-05   -0.16860E-05  1301   0.396E-02
  93 F= -.87142775E+02 E0= -.87135474E+02  d E =-.540664E-03
       N       E                     dE             d eps       ncg     rms          rms(c)
DAV:   1    -0.840442904382E+02   -0.63036E-03   -0.53161E-02  2032   0.922E-01    0.517E-02
RMM:   2    -0.840444039054E+02   -0.11347E-03   -0.12996E-03  2643   0.212E-01    0.288E-02
RMM:   3    -0.840444234008E+02   -0.19495E-04   -0.18892E-04  1989   0.615E-02    0.172E-02
RMM:   4    -0.840444277033E+02   -0.43025E-05   -0.33084E-05  1522   0.453E-02
  94 F= -.87143236E+02 E0= -.87135903E+02  d E =-.460920E-03
       N       E                     dE             d eps       ncg     rms          rms(c)
DAV:   1    -0.840451888602E+02   -0.76546E-03   -0.47778E-01  2000   0.276E+00    0.151E-01
RMM:   2    -0.840461908630E+02   -0.10020E-02   -0.11320E-02  2675   0.613E-01    0.846E-02
RMM:   3    -0.840463048700E+02   -0.11401E-03   -0.16128E-03  2656   0.179E-01    0.453E-02
RMM:   4    -0.840463679213E+02   -0.63051E-04   -0.34866E-04  2382   0.925E-02    0.360E-02
RMM:   5    -0.840463220044E+02    0.45917E-04   -0.95613E-05  1878   0.607E-02    0.189E-02
RMM:   6    -0.840463118611E+02    0.10143E-04   -0.34048E-05  1532   0.430E-02    0.720E-03
RMM:   7    -0.840463125540E+02   -0.69292E-06   -0.10346E-05  1304   0.214E-02
  95 F= -.87144201E+02 E0= -.87136760E+02  d E =-.142591E-02
       N       E                     dE             d eps       ncg     rms          rms(c)
DAV:   1    -0.840438983162E+02    0.24135E-02   -0.19169E+00  2000   0.551E+00    0.302E-01
RMM:   2    -0.840478383747E+02   -0.39401E-02   -0.44883E-02  2653   0.122E+00    0.166E-01
RMM:   3    -0.840482762784E+02   -0.43790E-03   -0.63672E-03  2724   0.357E-01    0.872E-02
RMM:   4    -0.840483470938E+02   -0.70815E-04   -0.11754E-03  2514   0.174E-01    0.481E-02
RMM:   5    -0.840483610972E+02   -0.14003E-04   -0.25620E-04  2195   0.101E-01    0.289E-02
RMM:   6    -0.840483253826E+02    0.35715E-04   -0.90890E-05  1904   0.508E-02    0.146E-02
RMM:   7    -0.840483231817E+02    0.22009E-05   -0.17802E-05  1387   0.338E-02
  96 F= -.87144396E+02 E0= -.87136756E+02  d E =-.162125E-02
       N       E                     dE             d eps       ncg     rms          rms(c)
DAV:   1    -0.840470390611E+02    0.12863E-02   -0.32709E-01  2000   0.227E+00    0.125E-01
RMM:   2    -0.840476928869E+02   -0.65383E-03   -0.75087E-03  2654   0.496E-01    0.678E-02
RMM:   3    -0.840477689593E+02   -0.76072E-04   -0.10418E-03  2571   0.145E-01    0.346E-02
RMM:   4    -0.840477924621E+02   -0.23503E-04   -0.20969E-04  2232   0.758E-02    0.216E-02
RMM:   5    -0.840477889043E+02    0.35578E-05   -0.50103E-05  1673   0.465E-02
  97 F= -.87144610E+02 E0= -.87137058E+02  d E =-.183440E-02
       N       E                     dE             d eps       ncg     rms          rms(c)
DAV:   1    -0.840484808662E+02   -0.68840E-03   -0.91301E-02  2144   0.123E+00    0.653E-02
RMM:   2    -0.840486918368E+02   -0.21097E-03   -0.24542E-03  2678   0.294E-01    0.357E-02
RMM:   3    -0.840487178232E+02   -0.25986E-04   -0.35952E-04  2211   0.851E-02    0.196E-02
RMM:   4    -0.840487245745E+02   -0.67512E-05   -0.46377E-05  1590   0.503E-02
  98 F= -.87145167E+02 E0= -.87137569E+02  d E =-.557587E-03
       N       E                     dE             d eps       ncg     rms          rms(c)
DAV:   1    -0.840487978037E+02   -0.79980E-04   -0.82038E-01  2000   0.368E+00    0.196E-01
RMM:   2    -0.840506446810E+02   -0.18469E-02   -0.20729E-02  2754   0.817E-01    0.112E-01
RMM:   3    -0.840511773555E+02   -0.53267E-03   -0.33750E-03  2736   0.267E-01    0.964E-02
RMM:   4    -0.840508413160E+02    0.33604E-03   -0.59213E-04  2366   0.135E-01    0.521E-02
RMM:   5    -0.840508350310E+02    0.62850E-05   -0.22978E-04  2295   0.668E-02    0.201E-02
RMM:   6    -0.840508355719E+02   -0.54091E-06   -0.60163E-05  1771   0.510E-02
  99 F= -.87146152E+02 E0= -.87138442E+02  d E =-.154268E-02
       N       E                     dE             d eps       ncg     rms          rms(c)
DAV:   1    -0.840437855590E+02    0.70495E-02   -0.32964E+00  2000   0.736E+00    0.389E-01
RMM:   2    -0.840511668614E+02   -0.73813E-02   -0.82834E-02  2700   0.162E+00    0.219E-01
RMM:   3    -0.840522050108E+02   -0.10381E-02   -0.11232E-02  2780   0.489E-01    0.144E-01
RMM:   4    -0.840522504595E+02   -0.45449E-04   -0.23884E-03  2587   0.249E-01    0.114E-01
RMM:   5    -0.840518985132E+02    0.35195E-03   -0.67736E-04  2472   0.138E-01    0.416E-02
RMM:   6    -0.840518827369E+02    0.15776E-04   -0.19184E-04  2187   0.912E-02    0.135E-02
RMM:   7    -0.840518909758E+02   -0.82388E-05   -0.80845E-05  1844   0.375E-02
 100 F= -.87144993E+02 E0= -.87137067E+02  d E =-.383835E-03
       N       E                     dE             d eps       ncg     rms          rms(c)
DAV:   1    -0.840473687709E+02    0.45140E-02   -0.17432E+00  2000   0.535E+00    0.287E-01
RMM:   2    -0.840511259653E+02   -0.37572E-02   -0.43662E-02  2730   0.116E+00    0.157E-01
RMM:   3    -0.840516386744E+02   -0.51271E-03   -0.62688E-03  2805   0.340E-01    0.101E-01
RMM:   4    -0.840517674172E+02   -0.12874E-03   -0.11841E-03  2587   0.173E-01    0.891E-02
RMM:   5    -0.840515426965E+02    0.22472E-03   -0.36821E-04  2321   0.101E-01    0.316E-02
RMM:   6    -0.840515468925E+02   -0.41960E-05   -0.13961E-04  2045   0.743E-02    0.125E-02
RMM:   7    -0.840515479726E+02   -0.10801E-05   -0.37186E-05  1612   0.325E-02
 101 F= -.87146257E+02 E0= -.87138486E+02  d E =-.164737E-02
       N       E                     dE             d eps       ncg     rms          rms(c)
DAV:   1    -0.840514205156E+02    0.12638E-03   -0.73420E-03  2400   0.349E-01    0.182E-02
RMM:   2    -0.840514424010E+02   -0.21885E-04   -0.23494E-04  2108   0.974E-02    0.104E-02
RMM:   3    -0.840514471994E+02   -0.47984E-05   -0.44862E-05  1390   0.364E-02
 102 F= -.87146261E+02 E0= -.87138499E+02  d E =-.165118E-02
       N       E                     dE             d eps       ncg     rms          rms(c)
DAV:   1    -0.840514909868E+02   -0.48586E-04   -0.15231E-03  2440   0.165E-01    0.964E-03
RMM:   2    -0.840515032606E+02   -0.12274E-04   -0.63173E-05  1598   0.499E-02    0.114E-02
RMM:   3    -0.840514959966E+02    0.72640E-05   -0.13118E-05  1149   0.327E-02
 103 F= -.87146261E+02 E0= -.87138496E+02  d E =-.165173E-02
       N       E                     dE             d eps       ncg     rms          rms(c)
DAV:   1    -0.840514695369E+02    0.33724E-04   -0.42380E-04  2416   0.839E-02    0.403E-03
RMM:   2    -0.840514706885E+02   -0.11517E-05   -0.12254E-05  1134   0.221E-02
 104 F= -.87146262E+02 E0= -.87138499E+02  d E =-.165216E-02
       N       E                     dE             d eps       ncg     rms          rms(c)
DAV:   1    -0.840514834518E+02   -0.13915E-04   -0.99170E-05  2128   0.430E-02    0.283E-03
RMM:   2    -0.840514844004E+02   -0.94863E-06   -0.44519E-06  1043   0.178E-02
 105 F= -.87146263E+02 E0= -.87138496E+02  d E =-.165300E-02
       N       E                     dE             d eps       ncg     rms          rms(c)
DAV:   1    -0.840514766618E+02    0.67900E-05   -0.32853E-05  2008   0.284E-02    0.122E-03
RMM:   2    -0.840514768844E+02   -0.22260E-06   -0.14954E-06   956   0.874E-03
 106 F= -.87146262E+02 E0= -.87138499E+02  d E =-.165270E-02
       N       E                     dE             d eps       ncg     rms          rms(c)
DAV:   1    -0.840517843207E+02   -0.30766E-03   -0.20598E-02  2064   0.545E-01    0.324E-02
RMM:   2    -0.840518370758E+02   -0.52755E-04   -0.56483E-04  2501   0.137E-01    0.196E-02
RMM:   3    -0.840518511500E+02   -0.14074E-04   -0.86473E-05  1645   0.486E-02    0.179E-02
RMM:   4    -0.840518398731E+02    0.11277E-04   -0.16798E-05  1271   0.394E-02    0.915E-03
RMM:   5    -0.840518406240E+02   -0.75093E-06   -0.81827E-06  1197   0.196E-02
 107 F= -.87146480E+02 E0= -.87138710E+02  d E =-.217527E-03
       N       E                     dE             d eps       ncg     rms          rms(c)
DAV:   1    -0.840520501680E+02   -0.21029E-03   -0.13443E-01  2000   0.140E+00    0.833E-02
RMM:   2    -0.840523940189E+02   -0.34385E-03   -0.36708E-03  2634   0.345E-01    0.510E-02
RMM:   3    -0.840524981076E+02   -0.10409E-03   -0.64830E-04  2514   0.123E-01    0.461E-02
RMM:   4    -0.840524196788E+02    0.78429E-04   -0.98234E-05  1889   0.637E-02    0.241E-02
RMM:   5    -0.840524209712E+02   -0.12925E-05   -0.48254E-05  1661   0.394E-02
 108 F= -.87146688E+02 E0= -.87138898E+02  d E =-.425580E-03
       N       E                     dE             d eps       ncg     rms          rms(c)
DAV:   1    -0.840526412122E+02   -0.22153E-03   -0.53553E-03  2632   0.289E-01    0.207E-02
RMM:   2    -0.840526605613E+02   -0.19349E-04   -0.20944E-04  2182   0.878E-02    0.123E-02
RMM:   3    -0.840526649343E+02   -0.43730E-05   -0.27892E-05  1307   0.350E-02
 109 F= -.87146845E+02 E0= -.87139039E+02  d E =-.157147E-03
       N       E                     dE             d eps       ncg     rms          rms(c)
DAV:   1    -0.840531190518E+02   -0.45849E-03   -0.50124E-02  2064   0.854E-01    0.603E-02
RMM:   2    -0.840532792013E+02   -0.16015E-03   -0.17295E-03  2463   0.259E-01    0.380E-02
RMM:   3    -0.840533252556E+02   -0.46054E-04   -0.35102E-04  2285   0.931E-02    0.281E-02
RMM:   4    -0.840533150503E+02    0.10205E-04   -0.58619E-05  1699   0.507E-02    0.198E-02
RMM:   5    -0.840533096470E+02    0.54034E-05   -0.19640E-05  1371   0.356E-02
 110 F= -.87147230E+02 E0= -.87139420E+02  d E =-.542090E-03
       N       E                     dE             d eps       ncg     rms          rms(c)
DAV:   1    -0.840535787276E+02   -0.26368E-03   -0.19998E-01  2000   0.170E+00    0.116E-01
RMM:   2    -0.840542097282E+02   -0.63100E-03   -0.63257E-03  2625   0.465E-01    0.727E-02
RMM:   3    -0.840543674433E+02   -0.15772E-03   -0.10518E-03  2606   0.169E-01    0.654E-02
RMM:   4    -0.840542267308E+02    0.14071E-03   -0.17832E-04  2150   0.796E-02    0.302E-02
RMM:   5    -0.840542333511E+02   -0.66203E-05   -0.84000E-05  1857   0.524E-02
 111 F= -.87147637E+02 E0= -.87139809E+02  d E =-.949002E-03
       N       E                     dE             d eps       ncg     rms          rms(c)
DAV:   1    -0.840543398635E+02   -0.11313E-03   -0.29700E-02  2432   0.664E-01    0.455E-02
RMM:   2    -0.840544453172E+02   -0.10545E-03   -0.10579E-03  2682   0.195E-01    0.271E-02
RMM:   3    -0.840544766417E+02   -0.31324E-04   -0.18514E-04  2087   0.687E-02    0.253E-02
RMM:   4    -0.840544537728E+02    0.22869E-04   -0.27382E-05  1442   0.436E-02    0.125E-02
RMM:   5    -0.840544555514E+02   -0.17785E-05   -0.13181E-05  1296   0.283E-02
 112 F= -.87147659E+02 E0= -.87139810E+02  d E =-.971610E-03
       N       E                     dE             d eps       ncg     rms          rms(c)
DAV:   1    -0.840546659273E+02   -0.21215E-03   -0.80899E-03  2440   0.351E-01    0.217E-02
RMM:   2    -0.840546874013E+02   -0.21474E-04   -0.22663E-04  2055   0.933E-02    0.120E-02
RMM:   3    -0.840546945931E+02   -0.71918E-05   -0.38886E-05  1373   0.365E-02
 113 F= -.87147832E+02 E0= -.87139982E+02  d E =-.172578E-03
       N       E                     dE             d eps       ncg     rms          rms(c)
DAV:   1    -0.840551005977E+02   -0.41320E-03   -0.74137E-02  2032   0.105E+00    0.669E-02
RMM:   2    -0.840552776204E+02   -0.17702E-03   -0.19563E-03  2689   0.257E-01    0.374E-02
RMM:   3    -0.840553321854E+02   -0.54565E-04   -0.36582E-04  2227   0.808E-02    0.265E-02
RMM:   4    -0.840553126115E+02    0.19574E-04   -0.58177E-05  1686   0.534E-02    0.164E-02
RMM:   5    -0.840553101777E+02    0.24338E-05   -0.12089E-05  1312   0.264E-02
 114 F= -.87148249E+02 E0= -.87140430E+02  d E =-.589576E-03
       N       E                     dE             d eps       ncg     rms          rms(c)
DAV:   1    -0.840554072676E+02   -0.94656E-04   -0.29571E-01  2000   0.209E+00    0.128E-01
RMM:   2    -0.840560287648E+02   -0.62150E-03   -0.70212E-03  2659   0.482E-01    0.696E-02
RMM:   3    -0.840561193540E+02   -0.90589E-04   -0.10608E-03  2564   0.133E-01    0.314E-02
RMM:   4    -0.840561453759E+02   -0.26022E-04   -0.14616E-04  2041   0.654E-02    0.179E-02
RMM:   5    -0.840561357878E+02    0.95881E-05   -0.27984E-05  1474   0.373E-02
 115 F= -.87148681E+02 E0= -.87140918E+02  d E =-.102168E-02
       N       E                     dE             d eps       ncg     rms          rms(c)
DAV:   1    -0.840563362421E+02   -0.19087E-03   -0.76103E-03  2632   0.358E-01    0.205E-02
RMM:   2    -0.840563619038E+02   -0.25662E-04   -0.28027E-04  2238   0.965E-02    0.118E-02
RMM:   3    -0.840563651037E+02   -0.31999E-05   -0.37286E-05  1307   0.358E-02
 116 F= -.87148847E+02 E0= -.87141094E+02  d E =-.166068E-03
       N       E                     dE             d eps       ncg     rms          rms(c)
DAV:   1    -0.840567712060E+02   -0.40930E-03   -0.69121E-02  2064   0.106E+00    0.597E-02
RMM:   2    -0.840569473564E+02   -0.17615E-03   -0.19662E-03  2751   0.252E-01    0.345E-02
RMM:   3    -0.840569882305E+02   -0.40874E-04   -0.36532E-04  2207   0.770E-02    0.222E-02
RMM:   4    -0.840569885160E+02   -0.28549E-06   -0.56811E-05  1666   0.496E-02
 117 F= -.87149282E+02 E0= -.87141560E+02  d E =-.600439E-03
       N       E                     dE             d eps       ncg     rms          rms(c)
DAV:   1    -0.840571075656E+02   -0.11934E-03   -0.27597E-01  2000   0.212E+00    0.116E-01
RMM:   2    -0.840577596524E+02   -0.65209E-03   -0.71814E-03  2708   0.480E-01    0.673E-02
RMM:   3    -0.840579321052E+02   -0.17245E-03   -0.12179E-03  2704   0.158E-01    0.535E-02
RMM:   4    -0.840578501477E+02    0.81957E-04   -0.21293E-04  2152   0.821E-02    0.326E-02
RMM:   5    -0.840578441675E+02    0.59802E-05   -0.62037E-05  1779   0.406E-02
 118 F= -.87149762E+02 E0= -.87142111E+02  d E =-.108104E-02
       N       E                     dE             d eps       ncg     rms          rms(c)
DAV:   1    -0.840552181246E+02    0.26320E-02   -0.11080E+00  2000   0.424E+00    0.228E-01
RMM:   2    -0.840577944555E+02   -0.25763E-02   -0.28265E-02  2755   0.921E-01    0.129E-01
RMM:   3    -0.840582864771E+02   -0.49202E-03   -0.40508E-03  2814   0.277E-01    0.899E-02
RMM:   4    -0.840581590594E+02    0.12742E-03   -0.85871E-04  2543   0.148E-01    0.644E-02
RMM:   5    -0.840580872848E+02    0.71775E-04   -0.17036E-04  2140   0.685E-02    0.174E-02
RMM:   6    -0.840580947686E+02   -0.74838E-05   -0.65567E-05  1819   0.472E-02
 119 F= -.87149275E+02 E0= -.87141788E+02  d E =-.594294E-03
       N       E                     dE             d eps       ncg     rms          rms(c)
DAV:   1    -0.840568101164E+02    0.12772E-02   -0.52350E-01  2000   0.290E+00    0.157E-01
RMM:   2    -0.840579938710E+02   -0.11838E-02   -0.13368E-02  2726   0.634E-01    0.887E-02
RMM:   3    -0.840582294237E+02   -0.23555E-03   -0.19685E-03  2783   0.191E-01    0.622E-02
RMM:   4    -0.840581671177E+02    0.62306E-04   -0.37341E-04  2381   0.101E-01    0.453E-02
RMM:   5    -0.840581339912E+02    0.33127E-04   -0.94360E-05  1924   0.492E-02    0.121E-02
RMM:   6    -0.840581383923E+02   -0.44011E-05   -0.28433E-05  1450   0.332E-02
 120 F= -.87149823E+02 E0= -.87142227E+02  d E =-.114199E-02
       N       E                     dE             d eps       ncg     rms          rms(c)
DAV:   1    -0.840583478213E+02   -0.21383E-03   -0.64624E-02  2112   0.100E+00    0.524E-02
RMM:   2    -0.840584806093E+02   -0.13279E-03   -0.15193E-03  2695   0.223E-01    0.297E-02
RMM:   3    -0.840585144176E+02   -0.33808E-04   -0.28006E-04  2089   0.698E-02    0.207E-02
RMM:   4    -0.840585053802E+02    0.90374E-05   -0.37593E-05  1503   0.460E-02
 121 F= -.87150039E+02 E0= -.87142479E+02  d E =-.215647E-03
       N       E                     dE             d eps       ncg     rms          rms(c)
DAV:   1    -0.840582593334E+02    0.25508E-03   -0.29425E-01  2000   0.214E+00    0.114E-01
RMM:   2    -0.840588809166E+02   -0.62158E-03   -0.69264E-03  2768   0.455E-01    0.651E-02
RMM:   3    -0.840589815424E+02   -0.10063E-03   -0.99229E-04  2686   0.132E-01    0.419E-02
RMM:   4    -0.840589731426E+02    0.83999E-05   -0.20908E-04  2265   0.768E-02    0.330E-02
RMM:   5    -0.840589476412E+02    0.25501E-04   -0.43502E-05  1646   0.424E-02    0.898E-03
RMM:   6    -0.840589498589E+02   -0.22177E-05   -0.18428E-05  1355   0.297E-02
 122 F= -.87150162E+02 E0= -.87142669E+02  d E =-.338975E-03
       N       E                     dE             d eps       ncg     rms          rms(c)
DAV:   1    -0.840589145709E+02    0.33070E-04   -0.34245E-03  2480   0.234E-01    0.122E-02
RMM:   2    -0.840589230502E+02   -0.84793E-05   -0.99486E-05  1581   0.565E-02
 123 F= -.87150169E+02 E0= -.87142667E+02  d E =-.346290E-03
       N       E                     dE             d eps       ncg     rms          rms(c)
DAV:   1    -0.840589356474E+02   -0.21077E-04   -0.74318E-04  2472   0.107E-01    0.524E-03
RMM:   2    -0.840589381718E+02   -0.25244E-05   -0.13362E-05  1150   0.265E-02
 124 F= -.87150169E+02 E0= -.87142674E+02  d E =-.345585E-03
       N       E                     dE             d eps       ncg     rms          rms(c)
DAV:   1    -0.840589251230E+02    0.10524E-04   -0.46096E-04  2424   0.907E-02    0.362E-03
RMM:   2    -0.840589268435E+02   -0.17205E-05   -0.14386E-05  1120   0.250E-02
 125 F= -.87150170E+02 E0= -.87142670E+02  d E =-.347195E-03
       N       E                     dE             d eps       ncg     rms          rms(c)
DAV:   1    -0.840589799660E+02   -0.54843E-04   -0.84348E-04  2376   0.103E-01    0.101E-02
RMM:   2    -0.840589803873E+02   -0.42134E-06   -0.22599E-05  1165   0.287E-02
 126 F= -.87150240E+02 E0= -.87142740E+02  d E =-.701216E-04
