       N       E                     dE             d eps       ncg     rms          rms(c)
DAV:   1     0.231460803138E+04    0.23146E+04   -0.93616E+04  5768   0.161E+03
DAV:   2     0.302463568153E+03   -0.20121E+04   -0.19550E+04  5728   0.462E+02
DAV:   3    -0.547524098078E+02   -0.35722E+03   -0.34715E+03  6112   0.204E+02
DAV:   4    -0.896462774481E+02   -0.34894E+02   -0.33597E+02  6992   0.570E+01
DAV:   5    -0.929662107608E+02   -0.33199E+01   -0.32502E+01  8856   0.124E+01    0.413E+01
RMM:   6    -0.935557040391E+02   -0.58949E+00   -0.17900E+01  6292   0.717E+00    0.299E+01
RMM:   7    -0.980095786027E+02   -0.44539E+01   -0.15821E+01  6689   0.653E+00    0.233E+01
RMM:   8    -0.917537573306E+02    0.62558E+01   -0.71248E+00  6976   0.548E+00    0.129E+01
RMM:   9    -0.874130980153E+02    0.43407E+01   -0.24241E+00  7165   0.329E+00    0.428E+00
RMM:  10    -0.872074614975E+02    0.20564E+00   -0.11123E+00  8087   0.178E+00    0.200E+00
RMM:  11    -0.871955566174E+02    0.11905E-01   -0.40037E-01  8737   0.114E+00    0.107E+00
RMM:  12    -0.871939304581E+02    0.16262E-02   -0.21413E-01  8995   0.824E-01    0.608E-01
RMM:  13    -0.872052211268E+02   -0.11291E-01   -0.12877E-01  9505   0.501E-01    0.380E-01
RMM:  14    -0.872094394022E+02   -0.42183E-02   -0.58048E-02  9699   0.345E-01    0.234E-01
RMM:  15    -0.872134871753E+02   -0.40478E-02   -0.44397E-02  9597   0.267E-01    0.204E-01
RMM:  16    -0.872154559235E+02   -0.19687E-02   -0.22754E-02  9766   0.199E-01    0.110E-01
RMM:  17    -0.872167821592E+02   -0.13262E-02   -0.16129E-02  9696   0.158E-01    0.561E-02
RMM:  18    -0.872178975381E+02   -0.11154E-02   -0.10896E-02  9621   0.120E-01    0.731E-02
RMM:  19    -0.872185953860E+02   -0.69785E-03   -0.69774E-03  9450   0.952E-02    0.567E-02
RMM:  20    -0.872190588045E+02   -0.46342E-03   -0.46402E-03  9270   0.784E-02    0.545E-02
RMM:  21    -0.872195951130E+02   -0.53631E-03   -0.32011E-03  8909   0.696E-02    0.461E-02
RMM:  22    -0.872197704587E+02   -0.17535E-03   -0.22971E-03  8206   0.518E-02    0.215E-02
RMM:  23    -0.872199510222E+02   -0.18056E-03   -0.14381E-03  7225   0.404E-02    0.160E-02
RMM:  24    -0.872201616322E+02   -0.21061E-03   -0.10300E-03  6204   0.333E-02    0.493E-03
RMM:  25    -0.872202702582E+02   -0.10863E-03   -0.69197E-04  5351   0.270E-02    0.731E-03
RMM:  26    -0.872203267779E+02   -0.56520E-04   -0.47353E-04  4876   0.219E-02    0.896E-03
RMM:  27    -0.872203729349E+02   -0.46157E-04   -0.33718E-04  4721   0.182E-02    0.929E-03
RMM:  28    -0.872203971717E+02   -0.24237E-04   -0.22346E-04  4474   0.149E-02    0.108E-02
RMM:  29    -0.872204143374E+02   -0.17166E-04   -0.16285E-04  4344   0.126E-02    0.102E-02
RMM:  30    -0.872204250771E+02   -0.10740E-04   -0.10821E-04  3824   0.104E-02    0.102E-02
RMM:  31    -0.872204323992E+02   -0.73221E-05   -0.77327E-05  3418   0.887E-03
   1 F= -.90308526E+02 E0= -.90307750E+02  d E =-.903085E+02
       N       E                     dE             d eps       ncg     rms          rms(c)
DAV:   1     0.110094454884E+03    0.19731E+03   -0.52061E+03  6104   0.180E+02    0.130E+02
RMM:   2     0.557373735479E+02   -0.54357E+02   -0.57169E+02  6804   0.465E+01    0.976E+01
RMM:   3     0.462000829561E+02   -0.95373E+01   -0.90755E+01  6628   0.360E+01    0.243E+01
RMM:   4     0.217272429004E+02   -0.24473E+02   -0.79613E+01  7101   0.194E+01    0.456E+01
RMM:   5     0.577376365876E+02    0.36010E+02   -0.18012E+01  7161   0.101E+01    0.354E+01
RMM:   6     0.554857734971E+02   -0.22519E+01   -0.83618E+00  8044   0.542E+00    0.409E+01
RMM:   7     0.581015852108E+02    0.26158E+01   -0.47456E+00  7527   0.484E+00    0.252E+01
RMM:   8     0.564431256464E+02   -0.16585E+01   -0.15474E+01  7776   0.669E+00    0.818E+00
RMM:   9     0.576986078377E+02    0.12555E+01   -0.27003E+00  8163   0.348E+00    0.838E+00
RMM:  10     0.581296733565E+02    0.43107E+00   -0.16001E+00  7981   0.234E+00    0.497E+00
RMM:  11     0.583611420827E+02    0.23147E+00   -0.12785E+00  8112   0.197E+00    0.254E+00
RMM:  12     0.583232183969E+02   -0.37924E-01   -0.95980E-01  8576   0.160E+00    0.156E+00
RMM:  13     0.582643825918E+02   -0.58836E-01   -0.60675E-01  9356   0.116E+00    0.161E+00
RMM:  14     0.582054694778E+02   -0.58913E-01   -0.53494E-01  9141   0.929E-01    0.183E+00
RMM:  15     0.581449163949E+02   -0.60553E-01   -0.54252E-01  8396   0.818E-01    0.197E+00
RMM:  16     0.580690318397E+02   -0.75885E-01   -0.66331E-01  8339   0.882E-01    0.196E+00
RMM:  17     0.579915928884E+02   -0.77439E-01   -0.68396E-01  8868   0.724E-01    0.267E+00
RMM:  18     0.579163158437E+02   -0.75277E-01   -0.68446E-01  8564   0.619E-01    0.310E+00
RMM:  19     0.578474622576E+02   -0.68854E-01   -0.57791E-01  8045   0.551E-01    0.378E+00
RMM:  20     0.578088431724E+02   -0.38619E-01   -0.34246E-01  7734   0.463E-01    0.405E+00
RMM:  21     0.577846662438E+02   -0.24177E-01   -0.22270E-01  7439   0.393E-01    0.415E+00
RMM:  22     0.577632595868E+02   -0.21407E-01   -0.16800E-01  7478   0.352E-01    0.432E+00
RMM:  23     0.577436113946E+02   -0.19648E-01   -0.13265E-01  7539   0.325E-01    0.455E+00
RMM:  24     0.577373442724E+02   -0.62671E-02   -0.94957E-02  7329   0.293E-01    0.445E+00
RMM:  25     0.577344656849E+02   -0.28786E-02   -0.67436E-02  7363   0.270E-01    0.427E+00
RMM:  26     0.577287420842E+02   -0.57236E-02   -0.46087E-02  7065   0.245E-01    0.428E+00
RMM:  27     0.577260669631E+02   -0.26751E-02   -0.35236E-02  7166   0.228E-01    0.423E+00
RMM:  28     0.577235309504E+02   -0.25360E-02   -0.26763E-02  6885   0.212E-01    0.422E+00
RMM:  29     0.577245307440E+02    0.99979E-03   -0.20318E-02  7340   0.209E-01    0.410E+00
RMM:  30     0.577368844173E+02    0.12354E-01   -0.17609E-02  8431   0.250E-01    0.351E+00
RMM:  31     0.577494937359E+02    0.12609E-01   -0.22454E-02  8496   0.272E-01    0.257E+00
RMM:  32     0.577523439594E+02    0.28502E-02   -0.12170E-02  7693   0.223E-01    0.220E+00
RMM:  33     0.577511468175E+02   -0.11971E-02   -0.99742E-03  7097   0.188E-01    0.216E+00
RMM:  34     0.577503034319E+02   -0.84339E-03   -0.75758E-03  6791   0.170E-01    0.214E+00
RMM:  35     0.577541574962E+02    0.38541E-02   -0.74808E-04  7491   0.189E-01    0.181E+00
RMM:  36     0.577567214293E+02    0.25639E-02   -0.80637E-03  7555   0.186E-01    0.148E+00
RMM:  37     0.577576326785E+02    0.91125E-03   -0.59406E-03  7319   0.168E-01    0.130E+00
RMM:  38     0.577586881778E+02    0.10555E-02   -0.67199E-03  7477   0.167E-01    0.110E+00
RMM:  39     0.577586587618E+02   -0.29416E-04   -0.60794E-03  6900   0.152E-01    0.101E+00
RMM:  40     0.577580456413E+02   -0.61312E-03   -0.51805E-03  6591   0.139E-01    0.101E+00
RMM:  41     0.577586433814E+02    0.59774E-03   -0.67813E-03  7203   0.150E-01    0.860E-01
RMM:  42     0.577583499896E+02   -0.29339E-03   -0.66849E-03  6764   0.137E-01    0.811E-01
RMM:  43     0.577575286165E+02   -0.82137E-03   -0.81558E-03  6445   0.126E-01    0.812E-01
RMM:  44     0.577565367126E+02   -0.99190E-03   -0.10174E-02  6145   0.118E-01    0.809E-01
RMM:  45     0.577548780894E+02   -0.16586E-02   -0.16242E-02  5821   0.113E-01    0.809E-01
RMM:  46     0.577524366197E+02   -0.24415E-02   -0.25244E-02  5254   0.108E-01    0.815E-01
RMM:  47     0.577503566251E+02   -0.20800E-02   -0.26442E-02  6598   0.119E-01    0.781E-01
RMM:  48     0.577483193263E+02   -0.20373E-02   -0.22996E-02  6048   0.109E-01    0.801E-01
RMM:  49     0.577484814419E+02    0.16212E-03   -0.27512E-03  6077   0.106E-01    0.803E-01
RMM:  50     0.577484571730E+02   -0.24269E-04   -0.10794E-03  5556   0.986E-02    0.805E-01
RMM:  51     0.577476714730E+02   -0.78570E-03   -0.91004E-03  5593   0.964E-02    0.806E-01
RMM:  52     0.577483469749E+02    0.67550E-03   -0.24416E-04  6730   0.116E-01    0.774E-01
RMM:  53     0.577482905623E+02   -0.56413E-04    0.11455E-04  6252   0.103E-01    0.722E-01
RMM:  54     0.577480856561E+02   -0.20491E-03   -0.56886E-04  6528   0.108E-01    0.669E-01
RMM:  55     0.577482695333E+02    0.18388E-03    0.10447E-03  6259   0.979E-02    0.648E-01
RMM:  56     0.577486011022E+02    0.33157E-03    0.27974E-04  6229   0.941E-02    0.601E-01
RMM:  57     0.577494667221E+02    0.86562E-03   -0.33310E-03  8460   0.213E-01    0.925E-01
RMM:  58     0.577500273394E+02    0.56062E-03    0.68483E-04  6935   0.131E-01    0.806E-01
RMM:  59     0.577508475838E+02    0.82024E-03    0.24627E-03  6763   0.117E-01    0.568E-01
RMM:  60     0.577511337690E+02    0.28619E-03    0.20407E-03  6245   0.956E-02    0.564E-01
RMM:  61     0.577514397198E+02    0.30595E-03    0.21801E-03  5794   0.884E-02    0.550E-01
RMM:  62     0.577514929136E+02    0.53194E-04    0.94758E-04  7384   0.134E-01    0.572E-01
RMM:  63     0.577519626327E+02    0.46972E-03    0.26784E-03  6316   0.977E-02    0.562E-01
RMM:  64     0.577523573711E+02    0.39474E-03    0.27039E-03  6314   0.901E-02    0.534E-01
RMM:  65     0.577525227691E+02    0.16540E-03    0.21292E-03  6116   0.901E-02    0.514E-01
RMM:  66     0.577528470053E+02    0.32424E-03    0.27713E-03  5390   0.809E-02    0.516E-01
RMM:  67     0.577534538772E+02    0.60687E-03    0.24529E-03  6790   0.105E-01    0.453E-01
RMM:  68     0.577536127077E+02    0.15883E-03    0.18360E-03  6102   0.903E-02    0.439E-01
RMM:  69     0.577536558629E+02    0.43155E-04    0.13461E-03  6159   0.890E-02    0.408E-01
RMM:  70     0.577535850757E+02   -0.70787E-04    0.48991E-04  6404   0.942E-02    0.359E-01
RMM:  71     0.577536475967E+02    0.62521E-04    0.11084E-03  6005   0.882E-02    0.324E-01
RMM:  72     0.577540183459E+02    0.37075E-03    0.24918E-03  5919   0.831E-02    0.341E-01
RMM:  73     0.577545300933E+02    0.51175E-03    0.36448E-03  5921   0.860E-02    0.381E-01
RMM:  74     0.577548757349E+02    0.34564E-03    0.27445E-03  5402   0.755E-02    0.394E-01
RMM:  75     0.577551652180E+02    0.28948E-03    0.25564E-03  4039   0.711E-02    0.392E-01
RMM:  76     0.577554668278E+02    0.30161E-03    0.27270E-03  3946   0.706E-02    0.390E-01
RMM:  77     0.577558258041E+02    0.35898E-03    0.25775E-03  5983   0.834E-02    0.381E-01
RMM:  78     0.577560994108E+02    0.27361E-03    0.27084E-03  5757   0.781E-02    0.373E-01
RMM:  79     0.577564432045E+02    0.34379E-03    0.30615E-03  5753   0.771E-02    0.392E-01
RMM:  80     0.577565646128E+02    0.12141E-03    0.19291E-03  5700   0.775E-02    0.383E-01
RMM:  81     0.577567778598E+02    0.21325E-03    0.22611E-03  5163   0.727E-02    0.383E-01
RMM:  82     0.577571101141E+02    0.33225E-03    0.24545E-03  4995   0.730E-02    0.391E-01
RMM:  83     0.577573600253E+02    0.24991E-03    0.22386E-03  3822   0.676E-02    0.395E-01
RMM:  84     0.577576166669E+02    0.25664E-03    0.23638E-03  3826   0.675E-02    0.391E-01
RMM:  85     0.577579785945E+02    0.36193E-03    0.26601E-03  4413   0.711E-02    0.404E-01
RMM:  86     0.577582721264E+02    0.29353E-03    0.24495E-03  3579   0.667E-02    0.408E-01
RMM:  87     0.577588420935E+02    0.56997E-03    0.33200E-03  6037   0.879E-02    0.409E-01
RMM:  88     0.577591273422E+02    0.28525E-03    0.22011E-03  5525   0.722E-02    0.400E-01
RMM:  89     0.577594113197E+02    0.28398E-03    0.18973E-03  5970   0.848E-02    0.331E-01
RMM:  90     0.577595823043E+02    0.17098E-03    0.17061E-03  5816   0.798E-02    0.301E-01
RMM:  91     0.577598864325E+02    0.30413E-03    0.23958E-03  5595   0.711E-02    0.312E-01
RMM:  92     0.577587419277E+02   -0.11445E-02   -0.40563E-03  7152   0.137E-01    0.233E-01
RMM:  93     0.577592685638E+02    0.52664E-03    0.35106E-03  5892   0.823E-02    0.212E-01
RMM:  94     0.577596187564E+02    0.35019E-03    0.21401E-03  5670   0.705E-02    0.199E-01
RMM:  95     0.577602708664E+02    0.65211E-03    0.33831E-03  5883   0.784E-02    0.157E-01
RMM:  96     0.577607522588E+02    0.48139E-03    0.32258E-03  5670   0.713E-02    0.137E-01
RMM:  97     0.577611968558E+02    0.44460E-03    0.29986E-03  5710   0.742E-02    0.106E-01
RMM:  98     0.577618889463E+02    0.69209E-03    0.48285E-03  5974   0.878E-02    0.759E-02
RMM:  99     0.577622729129E+02    0.38397E-03    0.31057E-03  5601   0.750E-02    0.408E-02
RMM: 100     0.577627190157E+02    0.44610E-03    0.39888E-03  5478   0.728E-02
   2 F= 0.54625797E+02 E0= 0.54624949E+02  d E =0.144934E+03
       N       E                     dE             d eps       ncg     rms          rms(c)
DAV:   1    -0.525803291926E+02   -0.11034E+03   -0.48826E+03  5968   0.149E+02    0.100E+02
RMM:   2    -0.606168303847E+02   -0.80365E+01   -0.47017E+02  6922   0.388E+01    0.583E+01
RMM:   3    -0.130135093430E+03   -0.69518E+02   -0.28449E+02  6872   0.282E+01    0.430E+01
RMM:   4    -0.922887109541E+02    0.37846E+02   -0.10970E+02  6971   0.169E+01    0.294E+01
RMM:   5    -0.885172972568E+02    0.37714E+01   -0.24556E+01  7288   0.861E+00    0.244E+01
RMM:   6    -0.836117714479E+02    0.49055E+01   -0.87254E+01  7337   0.113E+01    0.103E+01
RMM:   7    -0.816881549324E+02    0.19236E+01   -0.84476E+00  7143   0.493E+00    0.729E+00
RMM:   8    -0.808579546500E+02    0.83020E+00   -0.41155E+00  7880   0.301E+00    0.403E+00
RMM:   9    -0.810273827366E+02   -0.16943E+00   -0.29597E+00  8456   0.224E+00    0.181E+00
RMM:  10    -0.810740000966E+02   -0.46617E-01   -0.90751E-01  8231   0.140E+00    0.974E-01
RMM:  11    -0.811583939438E+02   -0.84394E-01   -0.80310E-01  8694   0.106E+00    0.738E-01
RMM:  12    -0.812408340622E+02   -0.82440E-01   -0.96392E-01  8534   0.109E+00    0.110E+00
RMM:  13    -0.812917501860E+02   -0.50916E-01   -0.51716E-01  9058   0.773E-01    0.133E+00
RMM:  14    -0.813971408117E+02   -0.10539E+00   -0.59805E-01  8149   0.748E-01    0.209E+00
RMM:  15    -0.813238609826E+02    0.73280E-01   -0.30478E-01  7829   0.649E-01    0.117E+00
RMM:  16    -0.813036142777E+02    0.20247E-01   -0.30105E-01  7778   0.629E-01    0.262E-01
RMM:  17    -0.813149505530E+02   -0.11336E-01   -0.98948E-02  7424   0.371E-01    0.339E-01
RMM:  18    -0.813213125293E+02   -0.63620E-02   -0.68641E-02  6604   0.274E-01    0.358E-01
RMM:  19    -0.813229809528E+02   -0.16684E-02   -0.48804E-02  6519   0.240E-01    0.302E-01
RMM:  20    -0.813249810271E+02   -0.20001E-02   -0.36369E-02  6598   0.237E-01    0.304E-01
RMM:  21    -0.813278813518E+02   -0.29003E-02   -0.25170E-02  6461   0.189E-01    0.356E-01
RMM:  22    -0.813294840504E+02   -0.16027E-02   -0.16968E-02  6309   0.152E-01    0.359E-01
RMM:  23    -0.813308188312E+02   -0.13348E-02   -0.13894E-02  6166   0.131E-01    0.360E-01
RMM:  24    -0.813319893680E+02   -0.11705E-02   -0.15095E-02  6451   0.136E-01    0.305E-01
RMM:  25    -0.813320687266E+02   -0.79359E-04   -0.95032E-03  6381   0.121E-01    0.258E-01
RMM:  26    -0.813324654487E+02   -0.39672E-03   -0.79939E-03  6287   0.106E-01    0.228E-01
RMM:  27    -0.813328765476E+02   -0.41110E-03   -0.55813E-03  6010   0.920E-02    0.220E-01
RMM:  28    -0.813333835266E+02   -0.50698E-03   -0.48851E-03  5094   0.816E-02    0.225E-01
RMM:  29    -0.813333740306E+02    0.94960E-05   -0.36811E-03  5804   0.819E-02    0.199E-01
RMM:  30    -0.813331356378E+02    0.23839E-03   -0.32726E-03  6213   0.860E-02    0.146E-01
RMM:  31    -0.813330211081E+02    0.11453E-03   -0.25259E-03  6225   0.839E-02    0.106E-01
RMM:  32    -0.813331613766E+02   -0.14027E-03   -0.18484E-03  5416   0.707E-02    0.899E-02
RMM:  33    -0.813332793966E+02   -0.11802E-03   -0.13864E-03  5210   0.630E-02    0.811E-02
RMM:  34    -0.813334030933E+02   -0.12370E-03   -0.12473E-03  4317   0.573E-02    0.790E-02
RMM:  35    -0.813335001255E+02   -0.97032E-04   -0.10542E-03  4387   0.540E-02    0.734E-02
RMM:  36    -0.813335521645E+02   -0.52039E-04   -0.98082E-04  5621   0.568E-02    0.579E-02
RMM:  37    -0.813336100906E+02   -0.57926E-04   -0.94643E-04  5626   0.550E-02    0.411E-02
RMM:  38    -0.813336917201E+02   -0.81630E-04   -0.80887E-04  4785   0.490E-02    0.407E-02
RMM:  39    -0.813337725872E+02   -0.80867E-04   -0.80040E-04  3581   0.452E-02    0.414E-02
RMM:  40    -0.813338399648E+02   -0.67378E-04   -0.70913E-04  3514   0.436E-02    0.412E-02
RMM:  41    -0.813339020136E+02   -0.62049E-04   -0.69433E-04  3856   0.430E-02    0.377E-02
RMM:  42    -0.813339623447E+02   -0.60331E-04   -0.65206E-04  3534   0.413E-02    0.368E-02
RMM:  43    -0.813340213808E+02   -0.59036E-04   -0.61618E-04  3945   0.402E-02    0.376E-02
RMM:  44    -0.813340782923E+02   -0.56912E-04   -0.57054E-04  3245   0.387E-02    0.400E-02
RMM:  45    -0.813341230849E+02   -0.44793E-04   -0.53634E-04  3918   0.390E-02    0.378E-02
RMM:  46    -0.813341720790E+02   -0.48994E-04   -0.52970E-04  3225   0.371E-02    0.372E-02
RMM:  47    -0.813342145067E+02   -0.42428E-04   -0.48191E-04  4170   0.379E-02    0.346E-02
RMM:  48    -0.813342646500E+02   -0.50143E-04   -0.50535E-04  3135   0.358E-02    0.361E-02
RMM:  49    -0.813343173825E+02   -0.52733E-04   -0.51066E-04  3278   0.351E-02    0.392E-02
RMM:  50    -0.813343639827E+02   -0.46600E-04   -0.48476E-04  3041   0.340E-02    0.399E-02
RMM:  51    -0.813344083696E+02   -0.44387E-04   -0.48759E-04  3305   0.333E-02    0.394E-02
RMM:  52    -0.813344532055E+02   -0.44836E-04   -0.47115E-04  3672   0.341E-02    0.377E-02
RMM:  53    -0.813344991002E+02   -0.45895E-04   -0.49452E-04  3016   0.323E-02    0.362E-02
RMM:  54    -0.813345544946E+02   -0.55394E-04   -0.53526E-04  2957   0.315E-02    0.361E-02
RMM:  55    -0.813346057306E+02   -0.51236E-04   -0.53058E-04  3045   0.313E-02    0.340E-02
RMM:  56    -0.813346506075E+02   -0.44877E-04   -0.47712E-04  2912   0.304E-02    0.327E-02
RMM:  57    -0.813346991028E+02   -0.48495E-04   -0.48096E-04  2865   0.299E-02    0.339E-02
RMM:  58    -0.813347431281E+02   -0.44025E-04   -0.51069E-04  3393   0.300E-02    0.295E-02
RMM:  59    -0.813347934300E+02   -0.50302E-04   -0.52228E-04  2794   0.289E-02    0.303E-02
RMM:  60    -0.813348381089E+02   -0.44679E-04   -0.46216E-04  2719   0.287E-02    0.316E-02
RMM:  61    -0.813348868530E+02   -0.48744E-04   -0.50544E-04  2680   0.283E-02    0.327E-02
RMM:  62    -0.813349305461E+02   -0.43693E-04   -0.51264E-04  3388   0.298E-02    0.296E-02
RMM:  63    -0.813349789636E+02   -0.48417E-04   -0.50080E-04  2837   0.280E-02    0.309E-02
RMM:  64    -0.813350288362E+02   -0.49873E-04   -0.51041E-04  2720   0.274E-02    0.325E-02
RMM:  65    -0.813350760628E+02   -0.47227E-04   -0.48466E-04  2756   0.273E-02    0.333E-02
RMM:  66    -0.813351255104E+02   -0.49448E-04   -0.51052E-04  2659   0.270E-02    0.346E-02
RMM:  67    -0.813351618210E+02   -0.36311E-04   -0.44491E-04  3149   0.276E-02    0.324E-02
RMM:  68    -0.813352078053E+02   -0.45984E-04   -0.48519E-04  2729   0.266E-02    0.333E-02
RMM:  69    -0.813352485917E+02   -0.40786E-04   -0.44120E-04  2535   0.262E-02    0.343E-02
RMM:  70    -0.813352896094E+02   -0.41018E-04   -0.42945E-04  2587   0.262E-02    0.360E-02
RMM:  71    -0.813353282168E+02   -0.38607E-04   -0.41443E-04  2549   0.259E-02    0.370E-02
RMM:  72    -0.813353718985E+02   -0.43682E-04   -0.45286E-04  2743   0.260E-02    0.378E-02
RMM:  73    -0.813354142593E+02   -0.42361E-04   -0.44186E-04  2791   0.256E-02    0.398E-02
RMM:  74    -0.813354558111E+02   -0.41552E-04   -0.42957E-04  2689   0.255E-02    0.428E-02
RMM:  75    -0.813354939166E+02   -0.38105E-04   -0.40799E-04  2463   0.250E-02    0.441E-02
RMM:  76    -0.813355383659E+02   -0.44449E-04   -0.46657E-04  2518   0.249E-02    0.459E-02
RMM:  77    -0.813355866970E+02   -0.48331E-04   -0.49768E-04  3483   0.259E-02    0.467E-02
RMM:  78    -0.813356346805E+02   -0.47984E-04   -0.49759E-04  2598   0.246E-02    0.487E-02
RMM:  79    -0.813356828782E+02   -0.48198E-04   -0.51103E-04  2614   0.245E-02    0.491E-02
RMM:  80    -0.813357272014E+02   -0.44323E-04   -0.46268E-04  2608   0.247E-02    0.506E-02
RMM:  81    -0.813357746141E+02   -0.47413E-04   -0.49303E-04  2552   0.243E-02    0.524E-02
RMM:  82    -0.813358195067E+02   -0.44893E-04   -0.53487E-04  3257   0.250E-02    0.470E-02
RMM:  83    -0.813358693341E+02   -0.49827E-04   -0.50713E-04  2666   0.245E-02    0.499E-02
RMM:  84    -0.813359214799E+02   -0.52146E-04   -0.50794E-04  2824   0.243E-02    0.549E-02
RMM:  85    -0.813359708034E+02   -0.49324E-04   -0.50405E-04  2495   0.238E-02    0.576E-02
RMM:  86    -0.813360193468E+02   -0.48543E-04   -0.51718E-04  2475   0.241E-02    0.588E-02
RMM:  87    -0.813360647365E+02   -0.45390E-04   -0.51589E-04  2845   0.245E-02    0.569E-02
RMM:  88    -0.813361122786E+02   -0.47542E-04   -0.51649E-04  2592   0.234E-02    0.574E-02
RMM:  89    -0.813361596432E+02   -0.47365E-04   -0.53625E-04  2755   0.235E-02    0.564E-02
RMM:  90    -0.813362098817E+02   -0.50238E-04   -0.53473E-04  2497   0.231E-02    0.575E-02
RMM:  91    -0.813362595975E+02   -0.49716E-04   -0.52059E-04  2388   0.229E-02    0.593E-02
RMM:  92    -0.813363019827E+02   -0.42385E-04   -0.55837E-04  2893   0.241E-02    0.544E-02
RMM:  93    -0.813363524222E+02   -0.50439E-04   -0.54717E-04  2555   0.232E-02    0.557E-02
RMM:  94    -0.813363997996E+02   -0.47377E-04   -0.52071E-04  2551   0.231E-02    0.572E-02
RMM:  95    -0.813364483040E+02   -0.48504E-04   -0.54155E-04  2695   0.231E-02    0.577E-02
RMM:  96    -0.813364970804E+02   -0.48776E-04   -0.52659E-04  2408   0.228E-02    0.592E-02
RMM:  97    -0.813365471402E+02   -0.50060E-04   -0.53653E-04  2458   0.224E-02    0.604E-02
RMM:  98    -0.813365968314E+02   -0.49691E-04   -0.52030E-04  2307   0.222E-02    0.622E-02
RMM:  99    -0.813366469069E+02   -0.50075E-04   -0.52477E-04  2382   0.219E-02    0.640E-02
RMM: 100    -0.813366963803E+02   -0.49473E-04   -0.51864E-04  2299   0.217E-02
   3 F= -.84427315E+02 E0= -.84426220E+02  d E =0.588121E+01
       N       E                     dE             d eps       ncg     rms          rms(c)
DAV:   1    -0.883427112109E+02   -0.70061E+01   -0.51514E+01  6192   0.418E+00    0.287E+00
RMM:   2    -0.888689414999E+02   -0.52623E+00   -0.91261E+00  6269   0.350E+00    0.154E+00
RMM:   3    -0.891458196353E+02   -0.27688E+00   -0.23225E+00  6659   0.181E+00    0.196E+00
RMM:   4    -0.890433351942E+02    0.10248E+00   -0.37948E-01  7047   0.118E+00    0.726E-01
RMM:   5    -0.890471246833E+02   -0.37895E-02   -0.70254E-02  7245   0.499E-01    0.536E-01
RMM:   6    -0.890467009017E+02    0.42378E-03   -0.28100E-02  7149   0.307E-01    0.121E-01
RMM:   7    -0.890476689839E+02   -0.96808E-03   -0.10807E-02  7569   0.181E-01    0.102E-01
RMM:   8    -0.890482893663E+02   -0.62038E-03   -0.57637E-03  6713   0.112E-01    0.747E-02
RMM:   9    -0.890486032416E+02   -0.31388E-03   -0.27883E-03  6081   0.771E-02    0.399E-02
RMM:  10    -0.890488174116E+02   -0.21417E-03   -0.17135E-03  5955   0.577E-02    0.121E-02
RMM:  11    -0.890489661499E+02   -0.14874E-03   -0.94507E-04  5670   0.426E-02    0.583E-03
RMM:  12    -0.890490648138E+02   -0.98664E-04   -0.60851E-04  5262   0.327E-02    0.458E-03
RMM:  13    -0.890491267514E+02   -0.61938E-04   -0.33887E-04  4887   0.262E-02    0.261E-03
RMM:  14    -0.890491681348E+02   -0.41383E-04   -0.21793E-04  4493   0.215E-02    0.140E-03
RMM:  15    -0.890491893457E+02   -0.21211E-04   -0.10385E-04  3879   0.182E-02    0.106E-03
RMM:  16    -0.890491988958E+02   -0.95501E-05   -0.57791E-05  3443   0.159E-02
   4 F= -.92140916E+02 E0= -.92139918E+02  d E =-.183239E+01
       N       E                     dE             d eps       ncg     rms          rms(c)
DAV:   1    -0.894081770419E+02   -0.35899E+00   -0.16504E+01  6240   0.620E+00    0.129E+00
RMM:   2    -0.894661315049E+02   -0.57954E-01   -0.69434E-01  6144   0.169E+00    0.727E-01
RMM:   3    -0.894946849108E+02   -0.28553E-01   -0.20824E-01  7197   0.903E-01    0.699E-01
RMM:   4    -0.894820093411E+02    0.12676E-01   -0.37311E-02  6972   0.363E-01    0.380E-01
RMM:   5    -0.894822178000E+02   -0.20846E-03   -0.14009E-02  7821   0.161E-01    0.268E-01
RMM:   6    -0.894824807173E+02   -0.26292E-03   -0.58431E-03  6913   0.920E-02    0.885E-02
RMM:   7    -0.894826688915E+02   -0.18817E-03   -0.34161E-03  5834   0.623E-02    0.393E-02
RMM:   8    -0.894828801175E+02   -0.21123E-03   -0.21386E-03  5556   0.384E-02    0.215E-02
RMM:   9    -0.894830219878E+02   -0.14187E-03   -0.12396E-03  5338   0.265E-02    0.230E-02
RMM:  10    -0.894831098408E+02   -0.87853E-04   -0.82936E-04  4991   0.200E-02    0.767E-03
RMM:  11    -0.894831813254E+02   -0.71485E-04   -0.53160E-04  4645   0.148E-02    0.520E-03
RMM:  12    -0.894832436133E+02   -0.62288E-04   -0.35638E-04  4313   0.118E-02    0.266E-03
RMM:  13    -0.894832816337E+02   -0.38020E-04   -0.22687E-04  4006   0.998E-03    0.193E-03
RMM:  14    -0.894833121146E+02   -0.30481E-04   -0.15761E-04  3150   0.878E-03    0.169E-03
RMM:  15    -0.894833247361E+02   -0.12622E-04   -0.94273E-05  2596   0.796E-03    0.137E-03
RMM:  16    -0.894833381097E+02   -0.13374E-04   -0.65953E-05  2637   0.758E-03    0.766E-04
RMM:  17    -0.894833420159E+02   -0.39062E-05   -0.34609E-05  2211   0.695E-03
   5 F= -.92576576E+02 E0= -.92575368E+02  d E =-.226805E+01
       N       E                     dE             d eps       ncg     rms          rms(c)
DAV:   1    -0.381860905704E+02    0.51297E+02   -0.39870E+03  5480   0.177E+02    0.213E+01
RMM:   2    -0.695238767897E+02   -0.31338E+02   -0.36235E+02  6704   0.413E+01    0.884E+00
RMM:   3    -0.754146374721E+02   -0.58908E+01   -0.83194E+01  7122   0.218E+01    0.921E+00
RMM:   4    -0.753821828650E+02    0.32455E-01   -0.22855E+01  7833   0.967E+00    0.112E+01
RMM:   5    -0.760313898297E+02   -0.64921E+00   -0.89053E+00  7713   0.572E+00    0.962E+00
RMM:   6    -0.756588938375E+02    0.37250E+00   -0.54851E+00  8296   0.338E+00    0.786E+00
RMM:   7    -0.756733017077E+02   -0.14408E-01   -0.19528E+00  8632   0.223E+00    0.654E+00
RMM:   8    -0.774270369383E+02   -0.17537E+01   -0.46102E+00  8380   0.230E+00    0.112E+01
RMM:   9    -0.760337671611E+02    0.13933E+01   -0.22293E+00  7438   0.337E+00    0.674E+00
RMM:  10    -0.759383240043E+02    0.95443E-01   -0.50435E-01  7628   0.171E+00    0.404E+00
RMM:  11    -0.758000371315E+02    0.13829E+00   -0.31254E-01  8767   0.932E-01    0.356E+00
RMM:  12    -0.756727860870E+02    0.12725E+00   -0.32542E-01  8528   0.902E-01    0.107E+00
RMM:  13    -0.757081632057E+02   -0.35377E-01   -0.12893E-01  8750   0.524E-01    0.165E+00
RMM:  14    -0.757169712314E+02   -0.88080E-02   -0.23415E-01  7475   0.823E-01    0.172E+00
RMM:  15    -0.757029656110E+02    0.14006E-01   -0.69420E-02  7738   0.438E-01    0.523E-01
RMM:  16    -0.757107129381E+02   -0.77473E-02   -0.70537E-02  7418   0.335E-01    0.364E-01
RMM:  17    -0.757146720449E+02   -0.39591E-02   -0.40889E-02  7138   0.258E-01    0.324E-01
RMM:  18    -0.757186967046E+02   -0.40247E-02   -0.38786E-02  6783   0.238E-01    0.295E-01
RMM:  19    -0.757216029461E+02   -0.29062E-02   -0.28779E-02  6691   0.208E-01    0.218E-01
RMM:  20    -0.757238114807E+02   -0.22085E-02   -0.23258E-02  6612   0.180E-01    0.375E-02
RMM:  21    -0.757260857317E+02   -0.22743E-02   -0.19067E-02  6395   0.166E-01    0.595E-02
RMM:  22    -0.757278350163E+02   -0.17493E-02   -0.15879E-02  6235   0.148E-01    0.475E-02
RMM:  23    -0.757293215155E+02   -0.14865E-02   -0.12745E-02  6199   0.139E-01    0.364E-02
RMM:  24    -0.757304903965E+02   -0.11689E-02   -0.11653E-02  5769   0.129E-01    0.176E-02
RMM:  25    -0.757314765836E+02   -0.98619E-03   -0.95154E-03  5269   0.120E-01    0.132E-02
RMM:  26    -0.757323852400E+02   -0.90866E-03   -0.89500E-03  4667   0.112E-01    0.160E-02
RMM:  27    -0.757331642219E+02   -0.77898E-03   -0.77687E-03  4254   0.106E-01    0.231E-02
RMM:  28    -0.757338864091E+02   -0.72219E-03   -0.72125E-03  4078   0.102E-01    0.324E-02
RMM:  29    -0.757345589168E+02   -0.67251E-03   -0.67702E-03  3833   0.973E-02    0.422E-02
RMM:  30    -0.757351555800E+02   -0.59666E-03   -0.60547E-03  3726   0.938E-02    0.490E-02
RMM:  31    -0.757357334939E+02   -0.57791E-03   -0.57721E-03  3717   0.912E-02    0.632E-02
RMM:  32    -0.757362594718E+02   -0.52598E-03   -0.53024E-03  3562   0.883E-02    0.745E-02
RMM:  33    -0.757367619373E+02   -0.50247E-03   -0.51192E-03  3466   0.859E-02    0.845E-02
RMM:  34    -0.757372229077E+02   -0.46097E-03   -0.47193E-03  3417   0.837E-02    0.934E-02
RMM:  35    -0.757376804532E+02   -0.45755E-03   -0.47019E-03  3309   0.815E-02    0.103E-01
RMM:  36    -0.757380998387E+02   -0.41939E-03   -0.43711E-03  3218   0.798E-02    0.110E-01
RMM:  37    -0.757384876674E+02   -0.38783E-03   -0.40460E-03  3162   0.778E-02    0.119E-01
RMM:  38    -0.757388790802E+02   -0.39141E-03   -0.41133E-03  3135   0.759E-02    0.126E-01
RMM:  39    -0.757392602302E+02   -0.38115E-03   -0.40179E-03  3055   0.745E-02    0.134E-01
RMM:  40    -0.757396343477E+02   -0.37412E-03   -0.39656E-03  3035   0.733E-02    0.142E-01
RMM:  41    -0.757400046105E+02   -0.37026E-03   -0.39335E-03  3021   0.720E-02    0.150E-01
RMM:  42    -0.757403401963E+02   -0.33559E-03   -0.35967E-03  2979   0.708E-02    0.158E-01
RMM:  43    -0.757407117680E+02   -0.37157E-03   -0.39620E-03  2989   0.696E-02    0.166E-01
RMM:  44    -0.757409944082E+02   -0.28264E-03   -0.30698E-03  2973   0.686E-02    0.175E-01
RMM:  45    -0.757413096515E+02   -0.31524E-03   -0.34273E-03  2945   0.674E-02    0.183E-01
RMM:  46    -0.757416244520E+02   -0.31480E-03   -0.34294E-03  2963   0.664E-02    0.192E-01
RMM:  47    -0.757419318041E+02   -0.30735E-03   -0.33846E-03  2924   0.657E-02    0.202E-01
RMM:  48    -0.757422294507E+02   -0.29765E-03   -0.33047E-03  2869   0.646E-02    0.210E-01
RMM:  49    -0.757425439238E+02   -0.31447E-03   -0.34218E-03  2925   0.638E-02    0.218E-01
RMM:  50    -0.757428105555E+02   -0.26663E-03   -0.29041E-03  2886   0.630E-02    0.226E-01
RMM:  51    -0.757430948876E+02   -0.28433E-03   -0.31298E-03  2786   0.620E-02    0.234E-01
RMM:  52    -0.757433173222E+02   -0.22243E-03   -0.28097E-03  2900   0.616E-02    0.237E-01
RMM:  53    -0.757435881668E+02   -0.27084E-03   -0.27366E-03  2865   0.608E-02    0.248E-01
RMM:  54    -0.757438402935E+02   -0.25213E-03   -0.28238E-03  2766   0.597E-02    0.255E-01
RMM:  55    -0.757440927988E+02   -0.25251E-03   -0.27941E-03  2800   0.590E-02    0.263E-01
RMM:  56    -0.757443404859E+02   -0.24769E-03   -0.27962E-03  2746   0.581E-02    0.271E-01
RMM:  57    -0.757446284273E+02   -0.28794E-03   -0.28474E-03  2967   0.580E-02    0.283E-01
RMM:  58    -0.757448567276E+02   -0.22830E-03   -0.27696E-03  2738   0.572E-02    0.290E-01
RMM:  59    -0.757450974738E+02   -0.24075E-03   -0.27950E-03  2677   0.568E-02    0.299E-01
RMM:  60    -0.757453169715E+02   -0.21950E-03   -0.25151E-03  2687   0.554E-02    0.307E-01
RMM:  61    -0.757455380535E+02   -0.22108E-03   -0.25639E-03  2645   0.547E-02    0.315E-01
RMM:  62    -0.757458593449E+02   -0.32129E-03   -0.25126E-03  3144   0.559E-02    0.330E-01
RMM:  63    -0.757460836305E+02   -0.22429E-03   -0.24374E-03  2787   0.541E-02    0.339E-01
RMM:  64    -0.757463052812E+02   -0.22165E-03   -0.24256E-03  2755   0.536E-02    0.348E-01
RMM:  65    -0.757465462204E+02   -0.24094E-03   -0.24000E-03  2806   0.532E-02    0.358E-01
RMM:  66    -0.757467481334E+02   -0.20191E-03   -0.23575E-03  2672   0.525E-02    0.366E-01
RMM:  67    -0.757469696945E+02   -0.22156E-03   -0.23478E-03  2868   0.522E-02    0.375E-01
RMM:  68    -0.757471231713E+02   -0.15348E-03   -0.22516E-03  2806   0.521E-02    0.380E-01
RMM:  69    -0.757473338041E+02   -0.21063E-03   -0.23078E-03  2691   0.513E-02    0.389E-01
RMM:  70    -0.757475036440E+02   -0.16984E-03   -0.22239E-03  2617   0.513E-02    0.397E-01
RMM:  71    -0.757477124620E+02   -0.20882E-03   -0.22589E-03  2657   0.503E-02    0.406E-01
RMM:  72    -0.757474929742E+02    0.21949E-03   -0.20468E-03  5056   0.575E-02    0.392E-01
RMM:  73    -0.757475081032E+02   -0.15129E-04   -0.20286E-03  3256   0.522E-02    0.393E-01
RMM:  74    -0.757476249688E+02   -0.11687E-03   -0.20563E-03  2703   0.501E-02    0.399E-01
RMM:  75    -0.757478026569E+02   -0.17769E-03   -0.20401E-03  2579   0.487E-02    0.407E-01
RMM:  76    -0.757479853200E+02   -0.18266E-03   -0.21360E-03  2521   0.481E-02    0.416E-01
RMM:  77    -0.757478823713E+02    0.10295E-03   -0.19875E-03  4274   0.525E-02    0.411E-01
RMM:  78    -0.757481458090E+02   -0.26344E-03   -0.19662E-03  3085   0.499E-02    0.422E-01
RMM:  79    -0.757483762402E+02   -0.23043E-03   -0.21485E-03  2586   0.479E-02    0.432E-01
RMM:  80    -0.757485723593E+02   -0.19612E-03   -0.19121E-03  2554   0.470E-02    0.442E-01
RMM:  81    -0.757487858464E+02   -0.21349E-03   -0.21709E-03  2424   0.463E-02    0.452E-01
RMM:  82    -0.757489831212E+02   -0.19727E-03   -0.19200E-03  3573   0.482E-02    0.460E-01
RMM:  83    -0.757491923007E+02   -0.20918E-03   -0.21898E-03  2628   0.465E-02    0.470E-01
RMM:  84    -0.757493638252E+02   -0.17152E-03   -0.20447E-03  2513   0.459E-02    0.478E-01
RMM:  85    -0.757495597495E+02   -0.19592E-03   -0.22225E-03  2540   0.460E-02    0.488E-01
RMM:  86    -0.757497569505E+02   -0.19720E-03   -0.21509E-03  2366   0.451E-02    0.497E-01
RMM:  87    -0.757491573875E+02    0.59956E-03   -0.23141E-03  5517   0.557E-02    0.481E-01
RMM:  88    -0.757495138331E+02   -0.35645E-03   -0.23693E-03  3518   0.468E-02    0.494E-01
RMM:  89    -0.757498821289E+02   -0.36830E-03   -0.27869E-03  2608   0.450E-02    0.506E-01
RMM:  90    -0.757502481891E+02   -0.36606E-03   -0.27680E-03  2687   0.445E-02    0.517E-01
RMM:  91    -0.757505704826E+02   -0.32229E-03   -0.33266E-03  2532   0.438E-02    0.529E-01
RMM:  92    -0.757508202616E+02   -0.24978E-03   -0.34469E-03  4016   0.473E-02    0.532E-01
RMM:  93    -0.757510791195E+02   -0.25886E-03   -0.46651E-03  3318   0.461E-02    0.541E-01
RMM:  94    -0.757512221851E+02   -0.14307E-03   -0.61106E-03  3882   0.482E-02    0.545E-01
RMM:  95    -0.757521084328E+02   -0.88625E-03   -0.85212E-03  2698   0.440E-02    0.568E-01
RMM:  96    -0.757528205939E+02   -0.71216E-03   -0.87395E-03  2747   0.439E-02    0.587E-01
RMM:  97    -0.757529996738E+02   -0.17908E-03   -0.71810E-03  5541   0.500E-02    0.595E-01
RMM:  98    -0.757530620595E+02   -0.62386E-04   -0.46774E-03  4972   0.473E-02    0.599E-01
RMM:  99    -0.757531030349E+02   -0.40975E-04   -0.59685E-03  5143   0.487E-02    0.606E-01
RMM: 100    -0.757530781414E+02    0.24894E-04   -0.35379E-03  3974   0.461E-02
   6 F= -.78880582E+02 E0= -.78874131E+02  d E =0.136960E+02
       N       E                     dE             d eps       ncg     rms          rms(c)
DAV:   1    -0.797792036437E+02   -0.40261E+01   -0.66963E+02  6208   0.565E+01    0.765E+00
RMM:   2    -0.844874152504E+02   -0.47082E+01   -0.31430E+01  6243   0.158E+01    0.131E+01
RMM:   3    -0.819695166411E+02    0.25179E+01   -0.58237E+00  7047   0.591E+00    0.332E+00
RMM:   4    -0.820318919380E+02   -0.62375E-01   -0.15428E+00  7265   0.271E+00    0.301E+00
RMM:   5    -0.818284341709E+02    0.20346E+00   -0.26440E-01  7490   0.120E+00    0.197E+00
RMM:   6    -0.818337959243E+02   -0.53618E-02   -0.14054E-01  8144   0.745E-01    0.154E+00
RMM:   7    -0.818249347315E+02    0.88612E-02   -0.59076E-02  8634   0.475E-01    0.141E+00
RMM:   8    -0.818160690542E+02    0.88657E-02   -0.51430E-02  8152   0.393E-01    0.689E-01
RMM:   9    -0.818142193812E+02    0.18497E-02   -0.20502E-02  8115   0.248E-01    0.359E-01
RMM:  10    -0.818157403346E+02   -0.15210E-02   -0.19901E-02  7154   0.210E-01    0.134E-01
RMM:  11    -0.818166777315E+02   -0.93740E-03   -0.98536E-03  6887   0.144E-01    0.789E-02
RMM:  12    -0.818176743904E+02   -0.99666E-03   -0.94501E-03  6550   0.116E-01    0.297E-02
RMM:  13    -0.818186161496E+02   -0.94176E-03   -0.80416E-03  6415   0.990E-02    0.261E-02
RMM:  14    -0.818194334272E+02   -0.81728E-03   -0.66858E-03  6215   0.890E-02    0.259E-02
RMM:  15    -0.818202059984E+02   -0.77257E-03   -0.55039E-03  6234   0.843E-02    0.140E-02
RMM:  16    -0.818208434314E+02   -0.63743E-03   -0.54442E-03  5717   0.730E-02    0.134E-02
RMM:  17    -0.818214832237E+02   -0.63979E-03   -0.53054E-03  5508   0.694E-02    0.142E-02
RMM:  18    -0.818220248694E+02   -0.54165E-03   -0.50175E-03  4783   0.635E-02    0.256E-02
RMM:  19    -0.818225387633E+02   -0.51389E-03   -0.44478E-03  4791   0.611E-02    0.298E-02
RMM:  20    -0.818230220168E+02   -0.48325E-03   -0.44633E-03  3706   0.579E-02    0.389E-02
RMM:  21    -0.818235311978E+02   -0.50918E-03   -0.44382E-03  3910   0.567E-02    0.499E-02
RMM:  22    -0.818240106801E+02   -0.47948E-03   -0.43894E-03  3228   0.548E-02    0.598E-02
RMM:  23    -0.818244808894E+02   -0.47021E-03   -0.44256E-03  3100   0.541E-02    0.682E-02
RMM:  24    -0.818249993090E+02   -0.51842E-03   -0.45130E-03  3424   0.550E-02    0.818E-02
RMM:  25    -0.818255125872E+02   -0.51328E-03   -0.45839E-03  3203   0.535E-02    0.938E-02
RMM:  26    -0.818260083741E+02   -0.49579E-03   -0.46641E-03  2827   0.522E-02    0.104E-01
RMM:  27    -0.818265151073E+02   -0.50673E-03   -0.47593E-03  2815   0.517E-02    0.114E-01
RMM:  28    -0.818270292112E+02   -0.51410E-03   -0.48372E-03  2778   0.510E-02    0.124E-01
RMM:  29    -0.818275475845E+02   -0.51837E-03   -0.49145E-03  2818   0.508E-02    0.135E-01
RMM:  30    -0.818280667786E+02   -0.51919E-03   -0.49507E-03  2729   0.503E-02    0.146E-01
RMM:  31    -0.818285899488E+02   -0.52317E-03   -0.49839E-03  2777   0.500E-02    0.157E-01
RMM:  32    -0.818291106677E+02   -0.52072E-03   -0.49838E-03  2736   0.495E-02    0.168E-01
RMM:  33    -0.818296279463E+02   -0.51728E-03   -0.49790E-03  2745   0.490E-02    0.179E-01
RMM:  34    -0.818301423942E+02   -0.51445E-03   -0.49547E-03  2800   0.487E-02    0.191E-01
RMM:  35    -0.818306527809E+02   -0.51039E-03   -0.49254E-03  2774   0.481E-02    0.202E-01
RMM:  36    -0.818311585890E+02   -0.50581E-03   -0.48815E-03  2716   0.476E-02    0.214E-01
RMM:  37    -0.818316582291E+02   -0.49964E-03   -0.48382E-03  2802   0.472E-02    0.226E-01
RMM:  38    -0.818321523211E+02   -0.49409E-03   -0.47820E-03  2701   0.465E-02    0.238E-01
RMM:  39    -0.818326387469E+02   -0.48643E-03   -0.47287E-03  2785   0.463E-02    0.249E-01
RMM:  40    -0.818331183983E+02   -0.47965E-03   -0.46653E-03  2704   0.456E-02    0.261E-01
RMM:  41    -0.818335903064E+02   -0.47191E-03   -0.46058E-03  2744   0.452E-02    0.273E-01
RMM:  42    -0.818340560799E+02   -0.46577E-03   -0.45530E-03  2723   0.445E-02    0.284E-01
RMM:  43    -0.818345143911E+02   -0.45831E-03   -0.44888E-03  2707   0.441E-02    0.296E-01
RMM:  44    -0.818349633466E+02   -0.44896E-03   -0.44173E-03  2771   0.438E-02    0.307E-01
RMM:  45    -0.818353965588E+02   -0.43321E-03   -0.42392E-03  2637   0.425E-02    0.318E-01
RMM:  46    -0.818358194637E+02   -0.42290E-03   -0.41281E-03  2651   0.422E-02    0.329E-01
RMM:  47    -0.818362452873E+02   -0.42582E-03   -0.38757E-03  2807   0.417E-02    0.339E-01
RMM:  48    -0.818366505493E+02   -0.40526E-03   -0.39394E-03  2535   0.409E-02    0.349E-01
RMM:  49    -0.818370445931E+02   -0.39404E-03   -0.38450E-03  2616   0.404E-02    0.358E-01
RMM:  50    -0.818374548736E+02   -0.41028E-03   -0.39975E-03  2583   0.400E-02    0.368E-01
RMM:  51    -0.818378532964E+02   -0.39842E-03   -0.38929E-03  2600   0.397E-02    0.377E-01
RMM:  52    -0.818382852019E+02   -0.43191E-03   -0.40384E-03  2645   0.394E-02    0.387E-01
RMM:  53    -0.818386941511E+02   -0.40895E-03   -0.39898E-03  2582   0.388E-02    0.397E-01
RMM:  54    -0.818391204947E+02   -0.42634E-03   -0.41823E-03  2506   0.382E-02    0.406E-01
RMM:  55    -0.818395347928E+02   -0.41430E-03   -0.40693E-03  2593   0.379E-02    0.415E-01
RMM:  56    -0.818399605882E+02   -0.42580E-03   -0.41933E-03  2462   0.372E-02    0.425E-01
RMM:  57    -0.818403380976E+02   -0.37751E-03   -0.42010E-03  2715   0.375E-02    0.433E-01
RMM:  58    -0.818407857577E+02   -0.44766E-03   -0.43258E-03  2492   0.366E-02    0.442E-01
RMM:  59    -0.818412363777E+02   -0.45062E-03   -0.43780E-03  2512   0.362E-02    0.452E-01
RMM:  60    -0.818416968014E+02   -0.46042E-03   -0.45345E-03  2571   0.362E-02    0.462E-01
RMM:  61    -0.818421651839E+02   -0.46838E-03   -0.46240E-03  2554   0.357E-02    0.471E-01
RMM:  62    -0.818419156915E+02    0.24949E-03   -0.47079E-03  5226   0.483E-02    0.462E-01
RMM:  63    -0.818420008172E+02   -0.85126E-04   -0.46511E-03  4643   0.419E-02    0.460E-01
RMM:  64    -0.818423548582E+02   -0.35404E-03   -0.48366E-03  3178   0.372E-02    0.466E-01
RMM:  65    -0.818428631648E+02   -0.50831E-03   -0.51071E-03  2589   0.349E-02    0.476E-01
RMM:  66    -0.818434316233E+02   -0.56846E-03   -0.58222E-03  2598   0.342E-02    0.488E-01
RMM:  67    -0.818437206745E+02   -0.28905E-03   -0.66220E-03  4346   0.398E-02    0.491E-01
RMM:  68    -0.818444346229E+02   -0.71395E-03   -0.70956E-03  2833   0.349E-02    0.505E-01
RMM:  69    -0.818451016639E+02   -0.66704E-03   -0.71889E-03  2938   0.350E-02    0.519E-01
RMM:  70    -0.818457235798E+02   -0.62192E-03   -0.65464E-03  2609   0.337E-02    0.532E-01
RMM:  71    -0.818462980264E+02   -0.57445E-03   -0.59425E-03  2585   0.331E-02    0.544E-01
RMM:  72    -0.818465237167E+02   -0.22569E-03   -0.45239E-03  3571   0.363E-02    0.549E-01
RMM:  73    -0.818469834609E+02   -0.45974E-03   -0.38448E-03  2515   0.328E-02    0.559E-01
RMM:  74    -0.818473998165E+02   -0.41636E-03   -0.41510E-03  2484   0.319E-02    0.569E-01
RMM:  75    -0.818477381919E+02   -0.33838E-03   -0.36086E-03  2383   0.312E-02    0.577E-01
RMM:  76    -0.818481247068E+02   -0.38651E-03   -0.34205E-03  2470   0.308E-02    0.586E-01
RMM:  77    -0.818483211779E+02   -0.19647E-03   -0.31917E-03  2920   0.332E-02    0.590E-01
RMM:  78    -0.818485935762E+02   -0.27240E-03   -0.30329E-03  2397   0.309E-02    0.597E-01
RMM:  79    -0.818488463196E+02   -0.25274E-03   -0.28308E-03  2390   0.304E-02    0.603E-01
RMM:  80    -0.818491219971E+02   -0.27568E-03   -0.27224E-03  2323   0.302E-02    0.610E-01
RMM:  81    -0.818492980560E+02   -0.17606E-03   -0.25017E-03  2432   0.301E-02    0.614E-01
RMM:  82    -0.818478717733E+02    0.14263E-02   -0.23364E-03  5651   0.463E-02    0.586E-01
RMM:  83    -0.818479770273E+02   -0.10525E-03   -0.19395E-03  4313   0.337E-02    0.590E-01
RMM:  84    -0.818479688235E+02    0.82038E-05   -0.20366E-03  4167   0.344E-02    0.591E-01
RMM:  85    -0.818481264650E+02   -0.15764E-03   -0.17590E-03  3019   0.311E-02    0.595E-01
RMM:  86    -0.818482136436E+02   -0.87179E-04   -0.17091E-03  2726   0.306E-02    0.599E-01
RMM:  87    -0.818475647967E+02    0.64885E-03   -0.17019E-03  5443   0.417E-02    0.587E-01
RMM:  88    -0.818476564910E+02   -0.91694E-04   -0.15037E-03  3187   0.309E-02    0.591E-01
RMM:  89    -0.818478178367E+02   -0.16135E-03   -0.14947E-03  2366   0.289E-02    0.596E-01
RMM:  90    -0.818479194799E+02   -0.10164E-03   -0.13605E-03  2338   0.287E-02    0.599E-01
RMM:  91    -0.818480599388E+02   -0.14046E-03   -0.13848E-03  2252   0.279E-02    0.603E-01
RMM:  92    -0.818472833349E+02    0.77660E-03   -0.13866E-03  5508   0.428E-02    0.587E-01
RMM:  93    -0.818471364308E+02    0.14690E-03   -0.11644E-03  3928   0.318E-02    0.586E-01
RMM:  94    -0.818472970952E+02   -0.16066E-03   -0.11509E-03  2381   0.286E-02    0.591E-01
RMM:  95    -0.818472802650E+02    0.16830E-04   -0.10854E-03  2443   0.286E-02    0.591E-01
RMM:  96    -0.818471631171E+02    0.11715E-03   -0.10174E-03  2685   0.285E-02    0.588E-01
RMM:  97    -0.818453184044E+02    0.18447E-02   -0.11218E-03  6114   0.551E-02    0.541E-01
RMM:  98    -0.818452564650E+02    0.61939E-04   -0.10101E-03  5425   0.382E-02    0.536E-01
RMM:  99    -0.818451733917E+02    0.83073E-04   -0.92455E-04  4557   0.328E-02    0.532E-01
RMM: 100    -0.818452214660E+02   -0.48074E-04   -0.90248E-04  4680   0.325E-02
   7 F= -.84957848E+02 E0= -.84954280E+02  d E =0.761873E+01
       N       E                     dE             d eps       ncg     rms          rms(c)
DAV:   1    -0.847815337394E+02   -0.29364E+01   -0.28237E+02  5904   0.330E+01    0.454E+00
RMM:   2    -0.878786159532E+02   -0.30971E+01   -0.30496E+01  6289   0.101E+01    0.647E+00
RMM:   3    -0.861701906376E+02    0.17084E+01   -0.10339E-01  7208   0.537E+00    0.315E+00
RMM:   4    -0.859030204754E+02    0.26717E+00   -0.72085E-01  7278   0.173E+00    0.181E+00
RMM:   5    -0.858657500074E+02    0.37270E-01   -0.12994E-01  7425   0.776E-01    0.148E+00
RMM:   6    -0.858624838559E+02    0.32662E-02   -0.37782E-02  8021   0.451E-01    0.118E+00
RMM:   7    -0.858542404149E+02    0.82434E-02   -0.24819E-02  7035   0.362E-01    0.751E-01
RMM:   8    -0.858520168725E+02    0.22235E-02   -0.20173E-02  7882   0.275E-01    0.346E-01
RMM:   9    -0.858524218562E+02   -0.40498E-03   -0.38010E-03  7277   0.161E-01    0.258E-01
RMM:  10    -0.858529548522E+02   -0.53300E-03   -0.35194E-03  6385   0.124E-01    0.151E-01
RMM:  11    -0.858530917256E+02   -0.13687E-03   -0.18623E-03  6124   0.987E-02    0.763E-02
RMM:  12    -0.858533028531E+02   -0.21113E-03   -0.15983E-03  5979   0.812E-02    0.410E-02
RMM:  13    -0.858535236143E+02   -0.22076E-03   -0.95048E-04  5903   0.746E-02    0.108E-02
RMM:  14    -0.858536945830E+02   -0.17097E-03   -0.92921E-04  5649   0.644E-02    0.691E-03
RMM:  15    -0.858538852041E+02   -0.19062E-03   -0.70731E-04  5505   0.577E-02    0.122E-02
RMM:  16    -0.858540859079E+02   -0.20070E-03   -0.86283E-04  4973   0.535E-02    0.112E-02
RMM:  17    -0.858541849607E+02   -0.99053E-04   -0.67029E-04  4190   0.497E-02    0.823E-03
RMM:  18    -0.858542778863E+02   -0.92926E-04   -0.79347E-04  3752   0.477E-02    0.542E-03
RMM:  19    -0.858543457388E+02   -0.67852E-04   -0.70034E-04  3294   0.461E-02    0.737E-03
RMM:  20    -0.858544445022E+02   -0.98763E-04   -0.79848E-04  3661   0.459E-02    0.409E-03
RMM:  21    -0.858545209626E+02   -0.76460E-04   -0.73466E-04  3107   0.443E-02    0.414E-03
RMM:  22    -0.858546010492E+02   -0.80087E-04   -0.80325E-04  2887   0.440E-02    0.522E-03
RMM:  23    -0.858546716859E+02   -0.70637E-04   -0.71632E-04  2543   0.435E-02    0.719E-03
RMM:  24    -0.858547452759E+02   -0.73590E-04   -0.73634E-04  2906   0.436E-02    0.727E-03
RMM:  25    -0.858548090362E+02   -0.63760E-04   -0.64381E-04  2804   0.429E-02    0.772E-03
RMM:  26    -0.858548807152E+02   -0.71679E-04   -0.72650E-04  2705   0.427E-02    0.866E-03
RMM:  27    -0.858549423497E+02   -0.61634E-04   -0.62545E-04  2262   0.416E-02    0.103E-02
RMM:  28    -0.858549974634E+02   -0.55114E-04   -0.56342E-04  2419   0.416E-02    0.114E-02
RMM:  29    -0.858550271746E+02   -0.29711E-04   -0.30937E-04  2334   0.413E-02    0.127E-02
RMM:  30    -0.858550157564E+02    0.11418E-04    0.10269E-04  2272   0.412E-02    0.142E-02
RMM:  31    -0.858550956687E+02   -0.79912E-04   -0.80633E-04  2278   0.409E-02    0.157E-02
RMM:  32    -0.858551690893E+02   -0.73421E-04   -0.75530E-04  2243   0.407E-02    0.173E-02
RMM:  33    -0.858552199249E+02   -0.50836E-04   -0.54247E-04  2270   0.406E-02    0.188E-02
RMM:  34    -0.858552763161E+02   -0.56391E-04   -0.59839E-04  2215   0.402E-02    0.204E-02
RMM:  35    -0.858553469035E+02   -0.70587E-04   -0.74011E-04  2235   0.400E-02    0.220E-02
RMM:  36    -0.858553894062E+02   -0.42503E-04   -0.46333E-04  2211   0.396E-02    0.235E-02
RMM:  37    -0.858554436461E+02   -0.54240E-04   -0.58378E-04  2178   0.391E-02    0.250E-02
RMM:  38    -0.858554877178E+02   -0.44072E-04   -0.48306E-04  2178   0.391E-02    0.266E-02
RMM:  39    -0.858555251197E+02   -0.37402E-04   -0.42030E-04  2201   0.388E-02    0.281E-02
RMM:  40    -0.858555581838E+02   -0.33064E-04   -0.37942E-04  2151   0.385E-02    0.296E-02
RMM:  41    -0.858555860477E+02   -0.27864E-04   -0.32935E-04  2223   0.384E-02    0.311E-02
RMM:  42    -0.858556057590E+02   -0.19711E-04   -0.25012E-04  2143   0.379E-02    0.327E-02
RMM:  43    -0.858556226591E+02   -0.16900E-04   -0.22337E-04  2233   0.380E-02    0.342E-02
RMM:  44    -0.858556351249E+02   -0.12466E-04   -0.18188E-04  2158   0.374E-02    0.358E-02
RMM:  45    -0.858556370689E+02   -0.19440E-05   -0.75345E-05  2158   0.370E-02
   8 F= -.88962456E+02 E0= -.88960354E+02  d E =0.361412E+01
       N       E                     dE             d eps       ncg     rms          rms(c)
DAV:   1    -0.866535444685E+02   -0.79791E+00   -0.23893E+02  5904   0.300E+01    0.464E+00
RMM:   2    -0.875709415858E+02   -0.91740E+00   -0.10082E+01  6326   0.101E+01    0.259E+00
RMM:   3    -0.876030812105E+02   -0.32140E-01   -0.24040E+00  7410   0.351E+00    0.218E+00
RMM:   4    -0.874955372302E+02    0.10754E+00   -0.52138E-01  7166   0.157E+00    0.126E+00
RMM:   5    -0.874662531125E+02    0.29284E-01   -0.80873E-02  7558   0.715E-01    0.954E-01
RMM:   6    -0.874607486624E+02    0.55045E-02   -0.26333E-02  8103   0.424E-01    0.524E-01
RMM:   7    -0.874581762685E+02    0.25724E-02   -0.17024E-02  7770   0.325E-01    0.162E-01
RMM:   8    -0.874582629354E+02   -0.86667E-04   -0.35730E-03  7626   0.201E-01    0.995E-02
RMM:   9    -0.874582307135E+02    0.32222E-04    0.69249E-04  6359   0.147E-01    0.477E-02
RMM:  10    -0.874582007514E+02    0.29962E-04    0.84903E-04  6179   0.117E-01    0.326E-02
RMM:  11    -0.874580756677E+02    0.12508E-03    0.19619E-03  6046   0.979E-02    0.177E-02
RMM:  12    -0.874580961282E+02   -0.20461E-04    0.91022E-04  5933   0.850E-02    0.143E-02
RMM:  13    -0.874579061273E+02    0.19000E-03    0.24054E-03  5712   0.756E-02    0.967E-03
RMM:  14    -0.874579092451E+02   -0.31178E-05    0.17219E-03  5624   0.705E-02    0.496E-03
RMM:  15    -0.874577098811E+02    0.19936E-03    0.21803E-03  5038   0.643E-02    0.304E-03
RMM:  16    -0.874576184023E+02    0.91479E-04    0.15836E-03  4394   0.605E-02    0.199E-03
RMM:  17    -0.874574542251E+02    0.16418E-03    0.18522E-03  3945   0.574E-02    0.243E-03
RMM:  18    -0.874573073804E+02    0.14684E-03    0.14748E-03  3580   0.552E-02    0.300E-03
RMM:  19    -0.874571326873E+02    0.17469E-03    0.16601E-03  3189   0.534E-02    0.487E-03
RMM:  20    -0.874569980421E+02    0.13465E-03    0.12646E-03  3058   0.521E-02    0.657E-03
RMM:  21    -0.874568398174E+02    0.15822E-03    0.14857E-03  2829   0.511E-02    0.858E-03
RMM:  22    -0.874567198890E+02    0.11993E-03    0.11066E-03  2773   0.502E-02    0.106E-02
RMM:  23    -0.874565790705E+02    0.14082E-03    0.13136E-03  2616   0.494E-02    0.127E-02
RMM:  24    -0.874564705438E+02    0.10853E-03    0.98393E-04  2631   0.489E-02    0.149E-02
RMM:  25    -0.874563453513E+02    0.12519E-03    0.11614E-03  2614   0.481E-02    0.172E-02
RMM:  26    -0.874562486899E+02    0.96661E-04    0.88540E-04  2603   0.477E-02    0.198E-02
RMM:  27    -0.874561379000E+02    0.11079E-03    0.10156E-03  2564   0.471E-02    0.226E-02
RMM:  28    -0.874560475054E+02    0.90395E-04    0.80060E-04  2434   0.464E-02    0.252E-02
RMM:  29    -0.874559498974E+02    0.97608E-04    0.87696E-04  2535   0.460E-02    0.280E-02
RMM:  30    -0.874558682301E+02    0.81667E-04    0.71205E-04  2398   0.453E-02    0.310E-02
RMM:  31    -0.874557826222E+02    0.85608E-04    0.75034E-04  2534   0.451E-02    0.340E-02
RMM:  32    -0.874557103452E+02    0.72277E-04    0.61546E-04  2401   0.444E-02    0.372E-02
RMM:  33    -0.874556301364E+02    0.80209E-04    0.69362E-04  2507   0.443E-02    0.403E-02
RMM:  34    -0.874555586939E+02    0.71443E-04    0.60598E-04  2399   0.434E-02    0.435E-02
RMM:  35    -0.874554943752E+02    0.64319E-04    0.53374E-04  2447   0.431E-02    0.465E-02
RMM:  36    -0.874554283426E+02    0.66033E-04    0.55184E-04  2437   0.428E-02    0.496E-02
RMM:  37    -0.874553510483E+02    0.77294E-04    0.66274E-04  2411   0.423E-02    0.527E-02
RMM:  38    -0.874552442401E+02    0.10681E-03    0.95925E-04  2407   0.421E-02    0.556E-02
RMM:  39    -0.874552000854E+02    0.44155E-04    0.33284E-04  2434   0.417E-02    0.582E-02
RMM:  40    -0.874551389847E+02    0.61101E-04    0.50143E-04  2357   0.411E-02    0.605E-02
RMM:  41    -0.874550720303E+02    0.66954E-04    0.55917E-04  2356   0.407E-02    0.627E-02
RMM:  42    -0.874550087141E+02    0.63316E-04    0.52564E-04  2320   0.402E-02    0.649E-02
RMM:  43    -0.874549604020E+02    0.48312E-04    0.37574E-04  2315   0.400E-02    0.670E-02
RMM:  44    -0.874549047508E+02    0.55651E-04    0.44833E-04  2296   0.397E-02    0.692E-02
RMM:  45    -0.874548465422E+02    0.58209E-04    0.47311E-04  2298   0.393E-02    0.713E-02
RMM:  46    -0.874548015343E+02    0.45008E-04    0.34057E-04  2323   0.391E-02    0.734E-02
RMM:  47    -0.874547501392E+02    0.51395E-04    0.40297E-04  2287   0.387E-02    0.755E-02
RMM:  48    -0.874547083331E+02    0.41806E-04    0.30756E-04  2286   0.384E-02    0.775E-02
RMM:  49    -0.874546679307E+02    0.40402E-04    0.29320E-04  2226   0.380E-02    0.795E-02
RMM:  50    -0.874546145343E+02    0.53396E-04    0.42229E-04  2231   0.379E-02    0.815E-02
RMM:  51    -0.874545833575E+02    0.31177E-04    0.20031E-04  2305   0.376E-02    0.834E-02
RMM:  52    -0.874545399600E+02    0.43397E-04    0.32397E-04  2249   0.372E-02    0.854E-02
RMM:  53    -0.874545066269E+02    0.33333E-04    0.22206E-04  2247   0.370E-02    0.872E-02
RMM:  54    -0.874544712334E+02    0.35394E-04    0.24175E-04  2261   0.366E-02    0.891E-02
RMM:  55    -0.874544323625E+02    0.38871E-04    0.27675E-04  2184   0.365E-02    0.909E-02
RMM:  56    -0.874544022486E+02    0.30114E-04    0.18804E-04  2273   0.363E-02    0.927E-02
RMM:  57    -0.874543647524E+02    0.37496E-04    0.25807E-04  2188   0.360E-02    0.945E-02
RMM:  58    -0.874543383662E+02    0.26386E-04    0.14998E-04  2246   0.359E-02    0.961E-02
RMM:  59    -0.874543073075E+02    0.31059E-04    0.19740E-04  2186   0.356E-02    0.979E-02
RMM:  60    -0.874542802643E+02    0.27043E-04    0.15651E-04  2206   0.355E-02    0.995E-02
RMM:  61    -0.874542537831E+02    0.26481E-04    0.15136E-04  2228   0.351E-02    0.101E-01
RMM:  62    -0.874542244419E+02    0.29341E-04    0.17138E-04  2334   0.351E-02    0.103E-01
RMM:  63    -0.874542021222E+02    0.22320E-04    0.11144E-04  2323   0.348E-02    0.105E-01
RMM:  64    -0.874541737894E+02    0.28333E-04    0.16879E-04  2312   0.348E-02    0.106E-01
RMM:  65    -0.874541545295E+02    0.19260E-04    0.78055E-05  2189   0.344E-02    0.108E-01
RMM:  66    -0.874541293632E+02    0.25166E-04    0.13693E-04  2235   0.344E-02    0.110E-01
RMM:  67    -0.874540985823E+02    0.30781E-04    0.59803E-05  2578   0.347E-02    0.109E-01
RMM:  68    -0.874540706219E+02    0.27960E-04    0.10376E-04  2702   0.343E-02    0.109E-01
RMM:  69    -0.874540529278E+02    0.17694E-04    0.57971E-05  2587   0.341E-02    0.110E-01
RMM:  70    -0.874540352424E+02    0.17685E-04    0.65050E-05  2418   0.337E-02    0.111E-01
RMM:  71    -0.874540178332E+02    0.17409E-04    0.58589E-05  2398   0.337E-02    0.112E-01
RMM:  72    -0.874539997988E+02    0.18034E-04    0.33563E-05  3048   0.338E-02    0.112E-01
RMM:  73    -0.874539825772E+02    0.17222E-04    0.56207E-05  2338   0.333E-02    0.113E-01
RMM:  74    -0.874539688251E+02    0.13752E-04    0.10207E-05  2284   0.332E-02    0.114E-01
RMM:  75    -0.874539510308E+02    0.17794E-04    0.56707E-05  2281   0.332E-02    0.115E-01
RMM:  76    -0.874539384704E+02    0.12560E-04    0.97902E-06  2194   0.329E-02    0.117E-01
RMM:  77    -0.874539193493E+02    0.19121E-04    0.20570E-05  2737   0.332E-02    0.117E-01
RMM:  78    -0.874539066382E+02    0.12711E-04    0.10857E-05  2414   0.327E-02    0.118E-01
RMM:  79    -0.874538956840E+02    0.10954E-04    0.11055E-06  2160   0.323E-02    0.119E-01
RMM:  80    -0.874538848646E+02    0.10819E-04    0.86459E-06  2198   0.324E-02    0.120E-01
RMM:  81    -0.874538755127E+02    0.93519E-05   -0.16233E-05  2224   0.322E-02
   9 F= -.90553433E+02 E0= -.90552370E+02  d E =0.202314E+01
       N       E                     dE             d eps       ncg     rms          rms(c)
DAV:   1    -0.893066165198E+02   -0.18527E+01   -0.71978E+01  5800   0.128E+01    0.279E+00
RMM:   2    -0.900068531439E+02   -0.70024E+00   -0.76302E+00  6183   0.372E+00    0.131E+00
RMM:   3    -0.901730819023E+02   -0.16623E+00   -0.12996E+00  7548   0.203E+00    0.794E-01
RMM:   4    -0.901874296256E+02   -0.14348E-01   -0.18772E-01  7510   0.795E-01    0.705E-01
RMM:   5    -0.901804110526E+02    0.70186E-02   -0.47701E-02  7380   0.334E-01    0.427E-01
RMM:   6    -0.901819671344E+02   -0.15561E-02   -0.26007E-02  7215   0.224E-01    0.116E-01
RMM:   7    -0.901830794976E+02   -0.11124E-02   -0.14824E-02  6790   0.148E-01    0.713E-02
RMM:   8    -0.901839215151E+02   -0.84202E-03   -0.82094E-03  6485   0.902E-02    0.481E-02
RMM:   9    -0.901844712371E+02   -0.54972E-03   -0.50705E-03  5974   0.560E-02    0.405E-02
RMM:  10    -0.901848028623E+02   -0.33163E-03   -0.29012E-03  5668   0.430E-02    0.200E-02
RMM:  11    -0.901850727655E+02   -0.26990E-03   -0.20015E-03  5529   0.327E-02    0.706E-03
RMM:  12    -0.901852691435E+02   -0.19638E-03   -0.12046E-03  5131   0.240E-02    0.718E-03
RMM:  13    -0.901853779844E+02   -0.10884E-03   -0.80564E-04  4433   0.185E-02    0.436E-03
RMM:  14    -0.901855168182E+02   -0.13883E-03   -0.53114E-04  4379   0.160E-02    0.223E-03
RMM:  15    -0.901855757117E+02   -0.58894E-04   -0.34105E-04  3271   0.130E-02    0.124E-03
RMM:  16    -0.901856210770E+02   -0.45365E-04   -0.21918E-04  3108   0.120E-02    0.764E-04
RMM:  17    -0.901856425013E+02   -0.21424E-04   -0.14457E-04  2650   0.108E-02    0.409E-04
RMM:  18    -0.901856545017E+02   -0.12000E-04   -0.90126E-05  2410   0.100E-02    0.408E-04
RMM:  19    -0.901856604980E+02   -0.59962E-05   -0.61121E-05  2282   0.965E-03
  10 F= -.93281963E+02 E0= -.93281156E+02  d E =-.705387E+00
       N       E                     dE             d eps       ncg     rms          rms(c)
DAV:   1    -0.907511048438E+02   -0.56545E+00   -0.17311E+01  5976   0.659E+00    0.106E+00
RMM:   2    -0.908628281495E+02   -0.11172E+00   -0.12074E+00  6153   0.171E+00    0.640E-01
RMM:   3    -0.908871075585E+02   -0.24279E-01   -0.25502E-01  7574   0.816E-01    0.602E-01
RMM:   4    -0.908901863469E+02   -0.30788E-02   -0.93523E-02  7375   0.324E-01    0.504E-01
RMM:   5    -0.908938972696E+02   -0.37109E-02   -0.49756E-02  7419   0.158E-01    0.389E-01
RMM:   6    -0.908954682984E+02   -0.15710E-02   -0.16149E-02  6400   0.101E-01    0.191E-01
RMM:   7    -0.908955501528E+02   -0.81854E-04   -0.83275E-03  5968   0.868E-02    0.117E-01
RMM:   8    -0.908960454154E+02   -0.49526E-03   -0.51153E-03  5650   0.474E-02    0.438E-02
RMM:   9    -0.908963417569E+02   -0.29634E-03   -0.27024E-03  5466   0.302E-02    0.174E-02
RMM:  10    -0.908965605929E+02   -0.21884E-03   -0.17360E-03  5078   0.210E-02    0.143E-02
RMM:  11    -0.908966888908E+02   -0.12830E-03   -0.10954E-03  4561   0.145E-02    0.592E-03
RMM:  12    -0.908967697791E+02   -0.80888E-04   -0.70760E-04  3909   0.106E-02    0.541E-03
RMM:  13    -0.908968436510E+02   -0.73872E-04   -0.48473E-04  4122   0.106E-02    0.289E-03
RMM:  14    -0.908968929643E+02   -0.49313E-04   -0.32705E-04  3343   0.745E-03    0.282E-03
RMM:  15    -0.908969137843E+02   -0.20820E-04   -0.21934E-04  2629   0.624E-03    0.117E-03
RMM:  16    -0.908969397115E+02   -0.25927E-04   -0.16164E-04  2945   0.669E-03    0.129E-03
RMM:  17    -0.908969592342E+02   -0.19523E-04   -0.11588E-04  2412   0.576E-03    0.691E-04
RMM:  18    -0.908969675315E+02   -0.82973E-05   -0.81201E-05  1917   0.530E-03
  11 F= -.93994845E+02 E0= -.93993316E+02  d E =-.141827E+01
       N       E                     dE             d eps       ncg     rms          rms(c)
DAV:   1    -0.908986686209E+02   -0.17094E-02   -0.35691E-01  6040   0.113E+00    0.170E-01
RMM:   2    -0.908995604055E+02   -0.89178E-03   -0.10927E-02  5633   0.232E-01    0.100E-01
RMM:   3    -0.908999039551E+02   -0.34355E-03   -0.29461E-03  6628   0.122E-01    0.854E-02
RMM:   4    -0.908997407863E+02    0.16317E-03   -0.45968E-04  5857   0.487E-02    0.570E-02
RMM:   5    -0.908997174856E+02    0.23301E-04   -0.88423E-05  5443   0.234E-02    0.379E-02
RMM:   6    -0.908997173078E+02    0.17780E-06   -0.48874E-05  4904   0.167E-02
  12 F= -.93997325E+02 E0= -.93995830E+02  d E =-.142075E+01
       N       E                     dE             d eps       ncg     rms          rms(c)
DAV:   1    -0.875045275062E+02    0.33952E+01   -0.91593E+02  6040   0.806E+01    0.919E+00
RMM:   2    -0.906436414605E+02   -0.31391E+01   -0.33568E+01  6189   0.173E+01    0.298E+00
RMM:   3    -0.914925539699E+02   -0.84891E+00   -0.84385E+00  7147   0.996E+00    0.322E+00
RMM:   4    -0.916474964080E+02   -0.15494E+00   -0.18104E+00  7713   0.357E+00    0.312E+00
RMM:   5    -0.916129476620E+02    0.34549E-01   -0.21470E-01  8315   0.138E+00    0.218E+00
RMM:   6    -0.916064437622E+02    0.65039E-02   -0.12823E-01  7461   0.783E-01    0.743E-01
RMM:   7    -0.916047235222E+02    0.17202E-02   -0.31236E-02  8310   0.432E-01    0.672E-01
RMM:   8    -0.916045689670E+02    0.15456E-03   -0.16557E-02  8401   0.260E-01    0.171E-01
RMM:   9    -0.916052811798E+02   -0.71221E-03   -0.72625E-03  8157   0.149E-01    0.952E-02
RMM:  10    -0.916057261494E+02   -0.44497E-03   -0.35984E-03  7454   0.977E-02    0.361E-02
RMM:  11    -0.916060801156E+02   -0.35397E-03   -0.25755E-03  6976   0.699E-02    0.323E-02
RMM:  12    -0.916062892137E+02   -0.20910E-03   -0.13529E-03  6485   0.530E-02    0.133E-02
RMM:  13    -0.916065109489E+02   -0.22174E-03   -0.96235E-04  6283   0.391E-02    0.137E-02
RMM:  14    -0.916066131450E+02   -0.10220E-03   -0.60047E-04  5842   0.306E-02    0.496E-03
RMM:  15    -0.916067578657E+02   -0.14472E-03   -0.43649E-04  5581   0.240E-02    0.274E-03
RMM:  16    -0.916068266068E+02   -0.68741E-04   -0.30581E-04  5047   0.187E-02    0.188E-03
RMM:  17    -0.916068655590E+02   -0.38952E-04   -0.19808E-04  4546   0.150E-02    0.195E-03
RMM:  18    -0.916068923868E+02   -0.26828E-04   -0.15382E-04  4101   0.123E-02    0.238E-03
RMM:  19    -0.916069082124E+02   -0.15826E-04   -0.10805E-04  3798   0.103E-02    0.118E-03
RMM:  20    -0.916069184246E+02   -0.10212E-04   -0.82276E-05  3421   0.886E-03    0.103E-03
RMM:  21    -0.916069255459E+02   -0.71214E-05   -0.63749E-05  3195   0.794E-03
  13 F= -.94718370E+02 E0= -.94714301E+02  d E =-.721045E+00
       N       E                     dE             d eps       ncg     rms          rms(c)
DAV:   1    -0.915986227038E+02    0.82957E-02   -0.34117E+00  5992   0.395E+00    0.500E-01
RMM:   2    -0.916051372101E+02   -0.65145E-02   -0.74501E-02  6067   0.855E-01    0.249E-01
RMM:   3    -0.916083982195E+02   -0.32610E-02   -0.32643E-02  7893   0.489E-01    0.176E-01
RMM:   4    -0.916083857536E+02    0.12466E-04   -0.25898E-03  7500   0.149E-01    0.162E-01
RMM:   5    -0.916082371416E+02    0.14861E-03   -0.54032E-04  7107   0.700E-02    0.132E-01
RMM:   6    -0.916082243157E+02    0.12826E-04   -0.24209E-05  5913   0.397E-02    0.555E-02
RMM:   7    -0.916081988958E+02    0.25420E-04    0.37750E-05  5539   0.283E-02    0.502E-02
RMM:   8    -0.916081905655E+02    0.83303E-05    0.57101E-05  4939   0.171E-02
  14 F= -.94718533E+02 E0= -.94714747E+02  d E =-.721208E+00
       N       E                     dE             d eps       ncg     rms          rms(c)
DAV:   1    -0.902415321400E+02    0.13667E+01   -0.24524E+02  5688   0.384E+01    0.588E+00
RMM:   2    -0.910808330697E+02   -0.83930E+00   -0.10059E+01  6310   0.894E+00    0.241E+00
RMM:   3    -0.912476450400E+02   -0.16681E+00   -0.25586E+00  7973   0.490E+00    0.268E+00
RMM:   4    -0.912856305084E+02   -0.37985E-01   -0.38941E-01  8366   0.178E+00    0.244E+00
RMM:   5    -0.912925242801E+02   -0.68938E-02   -0.65735E-02  8041   0.690E-01    0.216E+00
RMM:   6    -0.912763004908E+02    0.16224E-01   -0.42943E-02  7784   0.455E-01    0.925E-01
RMM:   7    -0.912739105192E+02    0.23900E-02   -0.19663E-02  7153   0.359E-01    0.106E+00
RMM:   8    -0.912716942797E+02    0.22162E-02   -0.69862E-03  7989   0.198E-01    0.611E-01
RMM:   9    -0.912710338180E+02    0.66046E-03   -0.58160E-03  7183   0.148E-01    0.188E-01
RMM:  10    -0.912712708081E+02   -0.23699E-03   -0.21854E-03  7691   0.935E-02    0.528E-02
RMM:  11    -0.912714372661E+02   -0.16646E-03   -0.73623E-04  6760   0.549E-02    0.360E-02
RMM:  12    -0.912716274889E+02   -0.19022E-03   -0.62118E-04  6197   0.373E-02    0.101E-02
RMM:  13    -0.912717335355E+02   -0.10605E-03   -0.32559E-04  5756   0.271E-02    0.324E-02
RMM:  14    -0.912717963409E+02   -0.62805E-04   -0.15572E-04  5475   0.204E-02    0.527E-03
RMM:  15    -0.912718816497E+02   -0.85309E-04   -0.13512E-04  5201   0.151E-02    0.116E-02
RMM:  16    -0.912718925703E+02   -0.10921E-04   -0.71860E-05  4570   0.114E-02    0.269E-03
RMM:  17    -0.912719162107E+02   -0.23640E-04   -0.45673E-05  3974   0.898E-03    0.380E-03
RMM:  18    -0.912719227962E+02   -0.65855E-05   -0.31419E-05  3412   0.710E-03
  15 F= -.94391331E+02 E0= -.94387546E+02  d E =0.327202E+00
       N       E                     dE             d eps       ncg     rms          rms(c)
DAV:   1    -0.911999441803E+02    0.71972E-01   -0.13077E+02  5560   0.283E+01    0.372E+00
RMM:   2    -0.915972335062E+02   -0.39729E+00   -0.44822E+00  6412   0.589E+00    0.179E+00
RMM:   3    -0.917331157748E+02   -0.13588E+00   -0.12472E+00  8137   0.372E+00    0.155E+00
RMM:   4    -0.916935004933E+02    0.39615E-01   -0.18442E-01  7812   0.121E+00    0.113E+00
RMM:   5    -0.916843210383E+02    0.91795E-02   -0.36613E-02  8505   0.550E-01    0.770E-01
RMM:   6    -0.916835207229E+02    0.80032E-03   -0.17640E-02  7964   0.331E-01    0.231E-01
RMM:   7    -0.916835433431E+02   -0.22620E-04   -0.63480E-03  7669   0.197E-01    0.141E-01
RMM:   8    -0.916836744488E+02   -0.13111E-03   -0.24986E-03  7701   0.117E-01    0.598E-02
RMM:   9    -0.916837719418E+02   -0.97493E-04   -0.10784E-03  7344   0.675E-02    0.593E-02
RMM:  10    -0.916838421534E+02   -0.70212E-04   -0.53002E-04  6290   0.440E-02    0.333E-02
RMM:  11    -0.916839250454E+02   -0.82892E-04   -0.30727E-04  5921   0.322E-02    0.110E-02
RMM:  12    -0.916840021297E+02   -0.77084E-04   -0.18855E-04  5574   0.240E-02    0.669E-03
RMM:  13    -0.916840511829E+02   -0.49053E-04   -0.10490E-04  5185   0.162E-02    0.353E-03
RMM:  14    -0.916841323553E+02   -0.81172E-04   -0.75949E-05  4950   0.127E-02    0.405E-03
RMM:  15    -0.916841644134E+02   -0.32058E-04   -0.45566E-05  4334   0.939E-03    0.198E-03
RMM:  16    -0.916841900226E+02   -0.25609E-04   -0.27975E-05  3912   0.803E-03    0.789E-04
RMM:  17    -0.916841991346E+02   -0.91120E-05   -0.18249E-05  3347   0.676E-03
  16 F= -.94797006E+02 E0= -.94793153E+02  d E =-.784728E-01
       N       E                     dE             d eps       ncg     rms          rms(c)
DAV:   1    -0.914161728632E+02    0.26802E+00   -0.12540E+02  5456   0.280E+01    0.367E+00
RMM:   2    -0.918056013002E+02   -0.38943E+00   -0.44579E+00  6322   0.642E+00    0.176E+00
RMM:   3    -0.918965765353E+02   -0.90975E-01   -0.11567E+00  8416   0.355E+00    0.122E+00
RMM:   4    -0.919174055828E+02   -0.20829E-01   -0.16606E-01  8421   0.123E+00    0.111E+00
RMM:   5    -0.919130274962E+02    0.43781E-02   -0.40808E-02  8810   0.534E-01    0.813E-01
RMM:   6    -0.919107719359E+02    0.22556E-02   -0.14566E-02  8257   0.309E-01    0.248E-01
RMM:   7    -0.919108130062E+02   -0.41070E-04   -0.64126E-03  8061   0.204E-01    0.179E-01
RMM:   8    -0.919109306192E+02   -0.11761E-03   -0.30779E-03  8543   0.119E-01    0.103E-01
RMM:   9    -0.919110590008E+02   -0.12838E-03   -0.18176E-03  7687   0.805E-02    0.708E-02
RMM:  10    -0.919110932050E+02   -0.34204E-04   -0.79352E-04  7131   0.596E-02    0.227E-02
RMM:  11    -0.919111493347E+02   -0.56130E-04   -0.55398E-04  6943   0.377E-02    0.707E-03
RMM:  12    -0.919111784831E+02   -0.29148E-04   -0.26576E-04  6355   0.268E-02    0.572E-03
RMM:  13    -0.919111982743E+02   -0.19791E-04   -0.17341E-04  5936   0.206E-02    0.435E-03
RMM:  14    -0.919112096132E+02   -0.11339E-04   -0.11033E-04  5433   0.159E-02    0.228E-03
RMM:  15    -0.919112169526E+02   -0.73394E-05   -0.71714E-05  4744   0.124E-02
  17 F= -.95031513E+02 E0= -.95028522E+02  d E =-.234507E+00
       N       E                     dE             d eps       ncg     rms          rms(c)
DAV:   1    -0.908781505842E+02    0.10331E+01   -0.26722E+02  5440   0.422E+01    0.604E+00
RMM:   2    -0.917915499438E+02   -0.91340E+00   -0.10379E+01  6304   0.980E+00    0.263E+00
RMM:   3    -0.919954071222E+02   -0.20386E+00   -0.25578E+00  8380   0.536E+00    0.187E+00
RMM:   4    -0.920479413037E+02   -0.52534E-01   -0.39368E-01  8390   0.188E+00    0.192E+00
RMM:   5    -0.920268697617E+02    0.21072E-01   -0.83808E-02  8842   0.783E-01    0.138E+00
RMM:   6    -0.920260990432E+02    0.77072E-03   -0.33610E-02  8275   0.473E-01    0.409E-01
RMM:   7    -0.920265332764E+02   -0.43423E-03   -0.17747E-02  7987   0.326E-01    0.416E-01
RMM:   8    -0.920264935523E+02    0.39724E-04   -0.79658E-03  8650   0.195E-01    0.231E-01
RMM:   9    -0.920269640153E+02   -0.47046E-03   -0.70015E-03  7470   0.168E-01    0.219E-01
RMM:  10    -0.920267373394E+02    0.22668E-03   -0.27851E-03  7289   0.119E-01    0.651E-02
RMM:  11    -0.920269028686E+02   -0.16553E-03   -0.15445E-03  8120   0.664E-02    0.898E-02
RMM:  12    -0.920269390507E+02   -0.36182E-04   -0.62935E-04  7258   0.420E-02    0.489E-02
RMM:  13    -0.920269695887E+02   -0.30538E-04   -0.37642E-04  6681   0.318E-02    0.277E-02
RMM:  14    -0.920269971709E+02   -0.27582E-04   -0.25917E-04  6327   0.245E-02    0.109E-02
RMM:  15    -0.920270136683E+02   -0.16497E-04   -0.16827E-04  5869   0.196E-02    0.679E-03
RMM:  16    -0.920270239913E+02   -0.10323E-04   -0.10126E-04  5044   0.149E-02    0.521E-03
RMM:  17    -0.920270311131E+02   -0.71218E-05   -0.73027E-05  4567   0.120E-02
  18 F= -.95158067E+02 E0= -.95156177E+02  d E =-.361061E+00
       N       E                     dE             d eps       ncg     rms          rms(c)
DAV:   1    -0.920113938745E+02    0.15630E-01   -0.21712E+01  6056   0.106E+01    0.116E+00
RMM:   2    -0.920517536919E+02   -0.40360E-01   -0.50953E-01  6085   0.261E+00    0.583E-01
RMM:   3    -0.920759853302E+02   -0.24232E-01   -0.25552E-01  7869   0.158E+00    0.473E-01
RMM:   4    -0.920745252017E+02    0.14601E-02   -0.24762E-02  7731   0.468E-01    0.448E-01
RMM:   5    -0.920740611771E+02    0.46402E-03   -0.50518E-03  8239   0.210E-01    0.401E-01
RMM:   6    -0.920744483014E+02   -0.38712E-03   -0.19457E-03  6443   0.128E-01    0.174E-01
RMM:   7    -0.920742339487E+02    0.21435E-03   -0.12215E-03  7308   0.933E-02    0.325E-01
RMM:   8    -0.920741779597E+02    0.55989E-04   -0.59215E-04  6175   0.664E-02    0.106E-01
RMM:   9    -0.920741986790E+02   -0.20719E-04   -0.19700E-04  6355   0.309E-02    0.629E-02
RMM:  10    -0.920742079833E+02   -0.93043E-05   -0.79229E-05  5137   0.182E-02
  19 F= -.95202572E+02 E0= -.95200664E+02  d E =-.445049E-01
       N       E                     dE             d eps       ncg     rms          rms(c)
DAV:   1    -0.920783104383E+02   -0.41118E-02   -0.17570E+00  6264   0.302E+00    0.313E-01
RMM:   2    -0.920810865876E+02   -0.27761E-02   -0.36936E-02  5986   0.702E-01    0.155E-01
RMM:   3    -0.920827422056E+02   -0.16556E-02   -0.18509E-02  7365   0.411E-01    0.123E-01
RMM:   4    -0.920827914814E+02   -0.49276E-04   -0.16713E-03  7391   0.120E-01    0.135E-01
RMM:   5    -0.920827415089E+02    0.49972E-04   -0.28792E-04  7002   0.505E-02    0.120E-01
RMM:   6    -0.920827570512E+02   -0.15542E-04   -0.73333E-05  5277   0.245E-02    0.836E-02
RMM:   7    -0.920827776527E+02   -0.20602E-04   -0.78432E-05  4994   0.246E-02    0.842E-02
RMM:   8    -0.920827755721E+02    0.20806E-05   -0.29254E-05  4071   0.128E-02
  20 F= -.95211894E+02 E0= -.95209995E+02  d E =-.538269E-01
       N       E                     dE             d eps       ncg     rms          rms(c)
DAV:   1    -0.921069980662E+02   -0.24220E-01   -0.84757E-01  6368   0.195E+00    0.168E-01
RMM:   2    -0.921084016007E+02   -0.14035E-02   -0.14542E-02  5973   0.458E-01    0.669E-02
RMM:   3    -0.921093194075E+02   -0.91781E-03   -0.80631E-03  7607   0.264E-01    0.827E-02
RMM:   4    -0.921092418098E+02    0.77598E-04   -0.57228E-04  7047   0.733E-02    0.766E-02
RMM:   5    -0.921092537198E+02   -0.11910E-04   -0.14295E-04  6333   0.333E-02    0.900E-02
RMM:   6    -0.921092569745E+02   -0.32547E-05   -0.31817E-05  4348   0.152E-02
  21 F= -.95237794E+02 E0= -.95235900E+02  d E =-.259003E-01
       N       E                     dE             d eps       ncg     rms          rms(c)
DAV:   1    -0.921569431358E+02   -0.47689E-01   -0.76875E+00  6168   0.591E+00    0.514E-01
RMM:   2    -0.921709640450E+02   -0.14021E-01   -0.14779E-01  6057   0.149E+00    0.221E-01
RMM:   3    -0.921798716833E+02   -0.89076E-02   -0.83248E-02  7943   0.855E-01    0.253E-01
RMM:   4    -0.921793327295E+02    0.53895E-03   -0.62805E-03  7583   0.240E-01    0.229E-01
RMM:   5    -0.921794455618E+02   -0.11283E-03   -0.15988E-03  7990   0.114E-01    0.232E-01
RMM:   6    -0.921794610096E+02   -0.15448E-04   -0.29678E-04  6980   0.474E-02    0.294E-01
RMM:   7    -0.921795023649E+02   -0.41355E-04   -0.69547E-04  6499   0.975E-02    0.429E-01
RMM:   8    -0.921794957445E+02    0.66203E-05   -0.21675E-04  5864   0.607E-02    0.166E-01
RMM:   9    -0.921795056421E+02   -0.98976E-05   -0.86759E-05  5247   0.268E-02
  22 F= -.95306323E+02 E0= -.95304407E+02  d E =-.944289E-01
       N       E                     dE             d eps       ncg     rms          rms(c)
DAV:   1    -0.921707043369E+02    0.87914E-02   -0.31494E+01  6120   0.122E+01    0.131E+00
RMM:   2    -0.922403087641E+02   -0.69604E-01   -0.73983E-01  6118   0.303E+00    0.585E-01
RMM:   3    -0.922823051623E+02   -0.41996E-01   -0.40870E-01  7987   0.194E+00    0.520E-01
RMM:   4    -0.922814862912E+02    0.81887E-03   -0.36160E-02  7833   0.550E-01    0.494E-01
RMM:   5    -0.922810253143E+02    0.46098E-03   -0.68274E-03  8398   0.244E-01    0.451E-01
RMM:   6    -0.922812326865E+02   -0.20737E-03   -0.14924E-03  7598   0.115E-01    0.292E-01
RMM:   7    -0.922813161056E+02   -0.83419E-04   -0.10543E-03  7331   0.943E-02    0.580E-01
RMM:   8    -0.922812573258E+02    0.58780E-04   -0.43490E-04  6369   0.803E-02    0.314E-01
RMM:   9    -0.922812861494E+02   -0.28824E-04   -0.34923E-04  6136   0.550E-02    0.825E-02
RMM:  10    -0.922813005093E+02   -0.14360E-04   -0.13484E-04  6236   0.250E-02    0.552E-02
RMM:  11    -0.922813040969E+02   -0.35877E-05   -0.58216E-05  4921   0.160E-02
  23 F= -.95404732E+02 E0= -.95402649E+02  d E =-.192838E+00
       N       E                     dE             d eps       ncg     rms          rms(c)
DAV:   1    -0.917472350923E+02    0.53407E+00   -0.14109E+02  6024   0.277E+01    0.309E+00
RMM:   2    -0.921441696642E+02   -0.39693E+00   -0.41118E+00  6144   0.653E+00    0.122E+00
RMM:   3    -0.923486217773E+02   -0.20445E+00   -0.19803E+00  7853   0.407E+00    0.127E+00
RMM:   4    -0.923504171444E+02   -0.17954E-02   -0.21720E-01  8030   0.132E+00    0.125E+00
RMM:   5    -0.923492785873E+02    0.11386E-02   -0.34796E-02  8493   0.544E-01    0.112E+00
RMM:   6    -0.923501206454E+02   -0.84206E-03   -0.72876E-03  8609   0.242E-01    0.866E-01
RMM:   7    -0.923511350551E+02   -0.10144E-02   -0.50709E-03  6831   0.230E-01    0.114E+00
RMM:   8    -0.923506844336E+02    0.45062E-03   -0.17439E-03  7312   0.138E-01    0.951E-01
RMM:   9    -0.923506500914E+02    0.34342E-04   -0.13285E-03  6595   0.111E-01    0.471E-01
RMM:  10    -0.923506683771E+02   -0.18286E-04   -0.75198E-04  6563   0.864E-02    0.135E-01
RMM:  11    -0.923506942636E+02   -0.25887E-04   -0.27076E-04  7073   0.399E-02    0.194E-01
RMM:  12    -0.923507163409E+02   -0.22077E-04   -0.17968E-04  5893   0.295E-02    0.107E-01
RMM:  13    -0.923507335403E+02   -0.17199E-04   -0.12428E-04  5864   0.279E-02    0.125E-02
RMM:  14    -0.923507397137E+02   -0.61735E-05   -0.60484E-05  5204   0.153E-02
  24 F= -.95467051E+02 E0= -.95463901E+02  d E =-.255157E+00
       N       E                     dE             d eps       ncg     rms          rms(c)
DAV:   1    -0.923477602456E+02    0.29733E-02   -0.11592E+00  5640   0.223E+00    0.206E-01
RMM:   2    -0.923497002406E+02   -0.19400E-02   -0.20160E-02  5978   0.522E-01    0.855E-02
RMM:   3    -0.923509316654E+02   -0.12314E-02   -0.11539E-02  7376   0.307E-01    0.892E-02
RMM:   4    -0.923508938356E+02    0.37830E-04   -0.81809E-04  7277   0.831E-02    0.858E-02
RMM:   5    -0.923508942898E+02   -0.45413E-06   -0.13019E-04  6404   0.344E-02    0.810E-02
RMM:   6    -0.923508947401E+02   -0.45035E-06   -0.28915E-05  4542   0.164E-02
  25 F= -.95467896E+02 E0= -.95464896E+02  d E =-.256002E+00
       N       E                     dE             d eps       ncg     rms          rms(c)
DAV:   1    -0.923566835259E+02   -0.57892E-02   -0.19475E+00  6200   0.325E+00    0.242E-01
RMM:   2    -0.923601360382E+02   -0.34525E-02   -0.38668E-02  5983   0.725E-01    0.119E-01
RMM:   3    -0.923620056329E+02   -0.18696E-02   -0.18950E-02  7738   0.424E-01    0.131E-01
RMM:   4    -0.923619968585E+02    0.87744E-05   -0.17518E-03  7381   0.128E-01    0.136E-01
RMM:   5    -0.923620111214E+02   -0.14263E-04   -0.37459E-04  7195   0.546E-02    0.138E-01
RMM:   6    -0.923620221286E+02   -0.11007E-04   -0.11467E-04  5402   0.265E-02    0.187E-01
RMM:   7    -0.923620301008E+02   -0.79722E-05   -0.44081E-04  6328   0.560E-02    0.249E-01
RMM:   8    -0.923620144721E+02    0.15629E-04   -0.98857E-05  5300   0.307E-02    0.914E-02
RMM:   9    -0.923620151904E+02   -0.71822E-06   -0.25416E-05  4097   0.117E-02
  26 F= -.95478112E+02 E0= -.95474988E+02  d E =-.102155E-01
       N       E                     dE             d eps       ncg     rms          rms(c)
DAV:   1    -0.923607187794E+02    0.12957E-02   -0.16767E+00  6040   0.300E+00    0.323E-01
RMM:   2    -0.923636335583E+02   -0.29148E-02   -0.33074E-02  5995   0.668E-01    0.154E-01
RMM:   3    -0.923652842634E+02   -0.16507E-02   -0.16128E-02  7658   0.391E-01    0.101E-01
RMM:   4    -0.923652684480E+02    0.15815E-04   -0.15569E-03  7470   0.121E-01    0.102E-01
RMM:   5    -0.923652247513E+02    0.43697E-04   -0.33477E-04  7145   0.518E-02    0.838E-02
RMM:   6    -0.923652313805E+02   -0.66292E-05   -0.97787E-05  5445   0.268E-02
  27 F= -.95480499E+02 E0= -.95477250E+02  d E =-.126025E-01
       N       E                     dE             d eps       ncg     rms          rms(c)
DAV:   1    -0.923711930075E+02   -0.59683E-02   -0.77146E-01  5976   0.208E+00    0.221E-01
RMM:   2    -0.923726238908E+02   -0.14309E-02   -0.15431E-02  6109   0.457E-01    0.103E-01
RMM:   3    -0.923733428759E+02   -0.71899E-03   -0.69358E-03  7701   0.261E-01    0.573E-02
RMM:   4    -0.923734081750E+02   -0.65299E-04   -0.67639E-04  7360   0.812E-02    0.622E-02
RMM:   5    -0.923733797486E+02    0.28426E-04   -0.15315E-04  6474   0.352E-02    0.509E-02
RMM:   6    -0.923733833029E+02   -0.35543E-05   -0.53411E-05  5018   0.186E-02
  28 F= -.95488040E+02 E0= -.95484672E+02  d E =-.754142E-02
       N       E                     dE             d eps       ncg     rms          rms(c)
DAV:   1    -0.923730579837E+02    0.32176E-03   -0.69473E+00  5776   0.628E+00    0.612E-01
RMM:   2    -0.923870612466E+02   -0.14003E-01   -0.15241E-01  6217   0.143E+00    0.286E-01
RMM:   3    -0.923938896250E+02   -0.68284E-02   -0.71619E-02  7960   0.834E-01    0.179E-01
[...]
RMM:   7    -0.930986626795E+02   -0.11546E-04   -0.37916E-04  6485   0.616E-02    0.144E-01
RMM:   8    -0.930986542211E+02    0.84584E-05   -0.21203E-04  6386   0.396E-02    0.139E-02
RMM:   9    -0.930986655647E+02   -0.11344E-04   -0.12459E-04  6070   0.224E-02    0.162E-02
RMM:  10    -0.930986704702E+02   -0.49055E-05   -0.54740E-05  4816   0.139E-02
 159 F= -.96141188E+02 E0= -.96135619E+02  d E =-.160828E-01
       N       E                     dE             d eps       ncg     rms          rms(c)
DAV:   1    -0.930992161953E+02   -0.55063E-03   -0.13269E-02  6016   0.281E-01    0.350E-02
RMM:   2    -0.930992407680E+02   -0.24573E-04   -0.31421E-04  5947   0.659E-02    0.177E-02
RMM:   3    -0.930992607957E+02   -0.20028E-04   -0.14074E-04  6445   0.381E-02    0.160E-02
RMM:   4    -0.930992541286E+02    0.66671E-05   -0.27902E-05  4103   0.176E-02
 160 F= -.96141804E+02 E0= -.96136258E+02  d E =-.615759E-03
       N       E                     dE             d eps       ncg     rms          rms(c)
DAV:   1    -0.931002675854E+02   -0.10068E-02   -0.11892E-01  6280   0.845E-01    0.712E-02
RMM:   2    -0.931004903343E+02   -0.22275E-03   -0.25872E-03  5803   0.193E-01    0.380E-02
RMM:   3    -0.931005889871E+02   -0.98653E-04   -0.10870E-03  7484   0.109E-01    0.255E-02
RMM:   4    -0.931006043933E+02   -0.15406E-04   -0.12807E-04  6399   0.359E-02    0.259E-02
RMM:   5    -0.931006015972E+02    0.27961E-05   -0.33294E-05  4254   0.185E-02
 161 F= -.96143249E+02 E0= -.96137800E+02  d E =-.206044E-02
       N       E                     dE             d eps       ncg     rms          rms(c)
DAV:   1    -0.931002619452E+02    0.34245E-03   -0.47511E-01  5880   0.169E+00    0.155E-01
RMM:   2    -0.931011208214E+02   -0.85888E-03   -0.10278E-02  5899   0.386E-01    0.816E-02
RMM:   3    -0.931014994332E+02   -0.37861E-03   -0.43327E-03  7745   0.219E-01    0.473E-02
RMM:   4    -0.931015454344E+02   -0.46001E-04   -0.47663E-04  7296   0.709E-02    0.464E-02
RMM:   5    -0.931015528826E+02   -0.74482E-05   -0.10295E-04  6626   0.309E-02    0.393E-02
RMM:   6    -0.931015576456E+02   -0.47630E-05   -0.48479E-05  4774   0.179E-02
 162 F= -.96144403E+02 E0= -.96139138E+02  d E =-.321431E-02
       N       E                     dE             d eps       ncg     rms          rms(c)
DAV:   1    -0.931016775715E+02   -0.12469E-03   -0.28983E-03  6320   0.138E-01    0.110E-02
RMM:   2    -0.931016845162E+02   -0.69447E-05   -0.76380E-05  5350   0.336E-02
 163 F= -.96144510E+02 E0= -.96139224E+02  d E =-.107103E-03
       N       E                     dE             d eps       ncg     rms          rms(c)
DAV:   1    -0.931019424899E+02   -0.26492E-03   -0.22958E-02  5936   0.370E-01    0.257E-02
RMM:   2    -0.931019937838E+02   -0.51294E-04   -0.53831E-04  5723   0.872E-02    0.153E-02
RMM:   3    -0.931020193199E+02   -0.25536E-04   -0.21769E-04  6898   0.497E-02    0.184E-02
RMM:   4    -0.931020154358E+02    0.38841E-05   -0.29961E-05  3677   0.186E-02
 164 F= -.96144786E+02 E0= -.96139460E+02  d E =-.383477E-03
       N       E                     dE             d eps       ncg     rms          rms(c)
DAV:   1    -0.931022003025E+02   -0.18098E-03   -0.90559E-02  5832   0.736E-01    0.577E-02
RMM:   2    -0.931023959220E+02   -0.19562E-03   -0.21306E-03  5904   0.173E-01    0.321E-02
RMM:   3    -0.931024848317E+02   -0.88910E-04   -0.86745E-04  7550   0.983E-02    0.267E-02
RMM:   4    -0.931024916895E+02   -0.68579E-05   -0.10963E-04  6519   0.333E-02    0.283E-02
RMM:   5    -0.931024888448E+02    0.28447E-05   -0.27581E-05  3930   0.169E-02
 165 F= -.96145151E+02 E0= -.96139744E+02  d E =-.748663E-03
       N       E                     dE             d eps       ncg     rms          rms(c)
DAV:   1    -0.931015807850E+02    0.91090E-03   -0.36120E-01  5728   0.147E+00    0.138E-01
RMM:   2    -0.931023382855E+02   -0.75750E-03   -0.84528E-03  6018   0.344E-01    0.719E-02
RMM:   3    -0.931026697291E+02   -0.33144E-03   -0.34236E-03  7756   0.197E-01    0.411E-02
RMM:   4    -0.931027258795E+02   -0.56150E-04   -0.42391E-04  7484   0.652E-02    0.490E-02
RMM:   5    -0.931027024762E+02    0.23403E-04   -0.84475E-05  6364   0.279E-02    0.347E-02
RMM:   6    -0.931027062323E+02   -0.37561E-05   -0.43262E-05  4654   0.168E-02
 166 F= -.96145156E+02 E0= -.96139589E+02  d E =-.753164E-03
       N       E                     dE             d eps       ncg     rms          rms(c)
DAV:   1    -0.931023042910E+02    0.39819E-03   -0.12439E-01  5736   0.865E-01    0.598E-02
RMM:   2    -0.931025773507E+02   -0.27306E-03   -0.28928E-03  5869   0.201E-01    0.327E-02
RMM:   3    -0.931026868397E+02   -0.10949E-03   -0.11399E-03  7361   0.113E-01    0.280E-02
RMM:   4    -0.931027003735E+02   -0.13534E-04   -0.12255E-04  6611   0.367E-02    0.304E-02
RMM:   5    -0.931026980414E+02    0.23321E-05   -0.28439E-05  4093   0.182E-02
 167 F= -.96145272E+02 E0= -.96139805E+02  d E =-.869432E-03
       N       E                     dE             d eps       ncg     rms          rms(c)
DAV:   1    -0.931025803240E+02    0.12005E-03   -0.50079E-02  5824   0.550E-01    0.353E-02
RMM:   2    -0.931026938427E+02   -0.11352E-03   -0.11802E-03  5756   0.127E-01    0.165E-02
RMM:   3    -0.931027427283E+02   -0.48886E-04   -0.46038E-04  7255   0.711E-02    0.182E-02
RMM:   4    -0.931027438441E+02   -0.11158E-05   -0.57119E-05  5090   0.240E-02
 168 F= -.96145239E+02 E0= -.96139717E+02  d E =-.835913E-03
       N       E                     dE             d eps       ncg     rms          rms(c)
DAV:   1    -0.931026636986E+02    0.79030E-04   -0.21364E-02  5816   0.358E-01    0.423E-02
RMM:   2    -0.931027078842E+02   -0.44186E-04   -0.49489E-04  5692   0.826E-02    0.207E-02
RMM:   3    -0.931027266896E+02   -0.18805E-04   -0.19353E-04  6563   0.465E-02    0.675E-03
RMM:   4    -0.931027294911E+02   -0.28015E-05   -0.26807E-05  3480   0.177E-02
 169 F= -.96145276E+02 E0= -.96139793E+02  d E =-.873460E-03
       N       E                     dE             d eps       ncg     rms          rms(c)
DAV:   1    -0.931028819428E+02   -0.15525E-03   -0.34583E-02  5728   0.462E-01    0.444E-02
RMM:   2    -0.931029606444E+02   -0.78702E-04   -0.87109E-04  5795   0.108E-01    0.230E-02
RMM:   3    -0.931029945609E+02   -0.33917E-04   -0.32571E-04  7230   0.607E-02    0.143E-02
RMM:   4    -0.931029990552E+02   -0.44943E-05   -0.47117E-05  4637   0.217E-02
 170 F= -.96145467E+02 E0= -.96139943E+02  d E =-.191233E-03
       N       E                     dE             d eps       ncg     rms          rms(c)
DAV:   1    -0.931030647716E+02   -0.70211E-04   -0.14871E-02  6056   0.305E-01    0.243E-02
RMM:   2    -0.931031016757E+02   -0.36904E-04   -0.39993E-04  5776   0.739E-02    0.149E-02
RMM:   3    -0.931031180577E+02   -0.16382E-04   -0.16642E-04  6515   0.426E-02    0.118E-02
RMM:   4    -0.931031200482E+02   -0.19905E-05   -0.22258E-05  3557   0.169E-02
 171 F= -.96145538E+02 E0= -.96139975E+02  d E =-.261646E-03
       N       E                     dE             d eps       ncg     rms          rms(c)
DAV:   1    -0.931030487319E+02    0.69326E-04   -0.59234E-02  5656   0.602E-01    0.478E-02
RMM:   2    -0.931031863454E+02   -0.13761E-03   -0.14999E-03  5887   0.142E-01    0.275E-02
RMM:   3    -0.931032415607E+02   -0.55215E-04   -0.56677E-04  7491   0.799E-02    0.207E-02
RMM:   4    -0.931032515623E+02   -0.10002E-04   -0.81931E-05  5971   0.280E-02    0.224E-02
RMM:   5    -0.931032477483E+02    0.38140E-05   -0.21588E-05  3639   0.149E-02
 172 F= -.96145565E+02 E0= -.96139928E+02  d E =-.288744E-03
       N       E                     dE             d eps       ncg     rms          rms(c)
DAV:   1    -0.931031263704E+02    0.12519E-03   -0.19709E-02  5656   0.349E-01    0.227E-02
RMM:   2    -0.931031745568E+02   -0.48186E-04   -0.49462E-04  5682   0.810E-02    0.117E-02
RMM:   3    -0.931031940795E+02   -0.19523E-04   -0.17820E-04  6496   0.449E-02    0.128E-02
RMM:   4    -0.931031933623E+02    0.71719E-06   -0.25339E-05  3488   0.180E-02
 173 F= -.96145569E+02 E0= -.96139965E+02  d E =-.292551E-03
       N       E                     dE             d eps       ncg     rms          rms(c)
DAV:   1    -0.931032115930E+02   -0.17514E-04   -0.48515E-03  5920   0.174E-01    0.219E-02
RMM:   2    -0.931032225475E+02   -0.10954E-04   -0.12368E-04  5525   0.407E-02    0.107E-02
RMM:   3    -0.931032272505E+02   -0.47030E-05   -0.45068E-05  3908   0.226E-02
 174 F= -.96145573E+02 E0= -.96139960E+02  d E =-.297309E-03
       N       E                     dE             d eps       ncg     rms          rms(c)
DAV:   1    -0.931032121255E+02    0.10422E-04   -0.80003E-04  6176   0.744E-02    0.106E-02
RMM:   2    -0.931032179036E+02   -0.57781E-05   -0.29723E-05  3833   0.196E-02
 175 F= -.96145576E+02 E0= -.96139984E+02  d E =-.300071E-03
       N       E                     dE             d eps       ncg     rms          rms(c)
DAV:   1    -0.931032208096E+02   -0.86842E-05   -0.24258E-04  6592   0.560E-02    0.469E-03
RMM:   2    -0.931032233294E+02   -0.25198E-05   -0.14892E-05  2898   0.138E-02
 176 F= -.96145575E+02 E0= -.96139970E+02  d E =-.298802E-03
       N       E                     dE             d eps       ncg     rms          rms(c)
DAV:   1    -0.931032184245E+02    0.23851E-05   -0.54113E-05  5184   0.271E-02    0.285E-03
RMM:   2    -0.931032191866E+02   -0.76205E-06   -0.51258E-06  2583   0.857E-03
 177 F= -.96145574E+02 E0= -.96139967E+02  d E =-.297856E-03
       N       E                     dE             d eps       ncg     rms          rms(c)
DAV:   1    -0.931032199983E+02   -0.15738E-05   -0.89251E-06  3080   0.156E-02    0.321E-03
RMM:   2    -0.931032206775E+02   -0.67924E-06   -0.46919E-06  2438   0.950E-03
 178 F= -.96145574E+02 E0= -.96139965E+02  d E =-.297806E-03
       N       E                     dE             d eps       ncg     rms          rms(c)
DAV:   1    -0.931032194461E+02    0.55222E-06   -0.22472E-06  2960   0.139E-02    0.288E-03
RMM:   2    -0.931032199461E+02   -0.50009E-06   -0.15434E-06  2289   0.427E-03
 179 F= -.96145574E+02 E0= -.96139968E+02  d E =-.298055E-03
       N       E                     dE             d eps       ncg     rms          rms(c)
DAV:   1    -0.931032199701E+02   -0.52403E-06   -0.16569E-06  2912   0.130E-02    0.127E-03
RMM:   2    -0.931032201059E+02   -0.13577E-06   -0.51224E-07  1683   0.254E-03
 180 F= -.96145574E+02 E0= -.96139964E+02  d E =-.297724E-03
       N       E                     dE             d eps       ncg     rms          rms(c)
DAV:   1    -0.931033102422E+02   -0.90272E-04   -0.18549E-03  5488   0.106E-01    0.110E-02
RMM:   2    -0.931033146659E+02   -0.44237E-05   -0.54998E-05  4378   0.230E-02
 181 F= -.96145642E+02 E0= -.96140025E+02  d E =-.683525E-04
       N       E                     dE             d eps       ncg     rms          rms(c)
DAV:   1    -0.931035252217E+02   -0.21498E-03   -0.16723E-02  5440   0.317E-01    0.337E-02
RMM:   2    -0.931035680266E+02   -0.42805E-04   -0.48630E-04  5958   0.676E-02    0.225E-02
RMM:   3    -0.931035838306E+02   -0.15804E-04   -0.10976E-04  6481   0.345E-02    0.214E-02
RMM:   4    -0.931035763412E+02    0.74894E-05   -0.23928E-05  3775   0.159E-02
 182 F= -.96145825E+02 E0= -.96140191E+02  d E =-.251595E-03
       N       E                     dE             d eps       ncg     rms          rms(c)
DAV:   1    -0.931037696058E+02   -0.18578E-03   -0.66254E-02  5440   0.629E-01    0.662E-02
RMM:   2    -0.931039283034E+02   -0.15870E-03   -0.19000E-03  6043   0.137E-01    0.398E-02
RMM:   3    -0.931039744165E+02   -0.46113E-04   -0.43145E-04  7631   0.708E-02    0.270E-02
RMM:   4    -0.931039841510E+02   -0.97345E-05   -0.78223E-05  6241   0.273E-02
 183 F= -.96146077E+02 E0= -.96140431E+02  d E =-.503316E-03
       N       E                     dE             d eps       ncg     rms          rms(c)
DAV:   1    -0.931034430554E+02    0.53136E-03   -0.26506E-01  5440   0.127E+00    0.133E-01
RMM:   2    -0.931040924595E+02   -0.64940E-03   -0.76980E-03  6198   0.276E-01    0.793E-02
RMM:   3    -0.931042603345E+02   -0.16788E-03   -0.17452E-03  7915   0.144E-01    0.502E-02
RMM:   4    -0.931043295191E+02   -0.69185E-04   -0.29665E-04  7471   0.540E-02    0.530E-02
RMM:   5    -0.931042803749E+02    0.49144E-04   -0.82019E-05  6007   0.260E-02    0.260E-02
RMM:   6    -0.931042857539E+02   -0.53790E-05   -0.40785E-05  4753   0.152E-02
 184 F= -.96146070E+02 E0= -.96140326E+02  d E =-.495663E-03
       N       E                     dE             d eps       ncg     rms          rms(c)
DAV:   1    -0.931039074798E+02    0.37290E-03   -0.90554E-02  5440   0.735E-01    0.771E-02
RMM:   2    -0.931041216443E+02   -0.21416E-03   -0.25525E-03  5872   0.159E-01    0.446E-02
RMM:   3    -0.931041771879E+02   -0.55544E-04   -0.58059E-04  7465   0.831E-02    0.270E-02
RMM:   4    -0.931041992443E+02   -0.22056E-04   -0.87569E-05  6332   0.302E-02    0.297E-02
RMM:   5    -0.931041834313E+02    0.15813E-04   -0.19791E-05  4203   0.145E-02    0.142E-02
RMM:   6    -0.931041852252E+02   -0.17939E-05   -0.88402E-06  3171   0.892E-03
 185 F= -.96146149E+02 E0= -.96140443E+02  d E =-.575500E-03
       N       E                     dE             d eps       ncg     rms          rms(c)
DAV:   1    -0.931042298902E+02   -0.46459E-04   -0.38672E-04  5936   0.487E-02    0.548E-03
RMM:   2    -0.931042308252E+02   -0.93504E-06   -0.11894E-05  3133   0.110E-02
 186 F= -.96146183E+02 E0= -.96140476E+02  d E =-.337261E-04
       N       E                     dE             d eps       ncg     rms          rms(c)
DAV:   1    -0.931043505380E+02   -0.12065E-03   -0.35242E-03  5520   0.142E-01    0.155E-02
RMM:   2    -0.931043580353E+02   -0.74973E-05   -0.97953E-05  5340   0.305E-02
 187 F= -.96146275E+02 E0= -.96140560E+02  d E =-.125346E-03
       N       E                     dE             d eps       ncg     rms          rms(c)
DAV:   1    -0.931045511536E+02   -0.20062E-03   -0.14131E-02  5440   0.284E-01    0.318E-02
RMM:   2    -0.931045846853E+02   -0.33532E-04   -0.40286E-04  5983   0.616E-02    0.201E-02
RMM:   3    -0.931046000626E+02   -0.15377E-04   -0.10010E-04  6339   0.327E-02    0.187E-02
RMM:   4    -0.931045944641E+02    0.55985E-05   -0.20554E-05  3724   0.139E-02
 188 F= -.96146440E+02 E0= -.96140716E+02  d E =-.290738E-03
       N       E                     dE             d eps       ncg     rms          rms(c)
DAV:   1    -0.931047927581E+02   -0.19270E-03   -0.55971E-02  5440   0.564E-01    0.614E-02
RMM:   2    -0.931049206094E+02   -0.12785E-03   -0.15575E-03  6025   0.121E-01    0.368E-02
RMM:   3    -0.931049583472E+02   -0.37738E-04   -0.34556E-04  7569   0.628E-02    0.258E-02
RMM:   4    -0.931049644368E+02   -0.60896E-05   -0.62208E-05  5845   0.245E-02
 189 F= -.96146669E+02 E0= -.96140934E+02  d E =-.519223E-03
       N       E                     dE             d eps       ncg     rms          rms(c)
DAV:   1    -0.931045952861E+02    0.36306E-03   -0.22373E-01  5440   0.113E+00    0.123E-01
RMM:   2    -0.931051130288E+02   -0.51774E-03   -0.62893E-03  6201   0.244E-01    0.735E-02
RMM:   3    -0.931052496309E+02   -0.13660E-03   -0.13879E-03  7862   0.127E-01    0.475E-02
RMM:   4    -0.931053046072E+02   -0.54976E-04   -0.23387E-04  7300   0.481E-02    0.499E-02
RMM:   5    -0.931052625594E+02    0.42048E-04   -0.66749E-05  5769   0.235E-02    0.232E-02
RMM:   6    -0.931052673056E+02   -0.47462E-05   -0.34430E-05  4463   0.139E-02
 190 F= -.96146691E+02 E0= -.96140874E+02  d E =-.541339E-03
       N       E                     dE             d eps       ncg     rms          rms(c)
DAV:   1    -0.931049957211E+02    0.26684E-03   -0.62380E-02  5440   0.595E-01    0.647E-02
RMM:   2    -0.931051342463E+02   -0.13853E-03   -0.16936E-03  5839   0.127E-01    0.375E-02
RMM:   3    -0.931051704348E+02   -0.36189E-04   -0.37339E-04  7288   0.660E-02    0.226E-02
RMM:   4    -0.931051852220E+02   -0.14787E-04   -0.57205E-05  5650   0.248E-02    0.247E-02
RMM:   5    -0.931051739616E+02    0.11260E-04   -0.15286E-05  3673   0.128E-02    0.110E-02
RMM:   6    -0.931051751368E+02   -0.11752E-05   -0.60332E-06  3091   0.810E-03
 191 F= -.96146746E+02 E0= -.96140956E+02  d E =-.597121E-03
       N       E                     dE             d eps       ncg     rms          rms(c)
DAV:   1    -0.931052018206E+02   -0.27859E-04   -0.36250E-03  5760   0.144E-01    0.157E-02
RMM:   2    -0.931052096705E+02   -0.78498E-05   -0.99251E-05  5328   0.309E-02
 192 F= -.96146745E+02 E0= -.96140948E+02  d E =-.595854E-03
       N       E                     dE             d eps       ncg     rms          rms(c)
DAV:   1    -0.931051819022E+02    0.19918E-04   -0.18140E-03  5632   0.103E-01    0.129E-02
RMM:   2    -0.931051861843E+02   -0.42820E-05   -0.48021E-05  3924   0.215E-02
 193 F= -.96146747E+02 E0= -.96140960E+02  d E =-.597898E-03
       N       E                     dE             d eps       ncg     rms          rms(c)
DAV:   1    -0.931051996961E+02   -0.17794E-04   -0.43231E-04  6040   0.582E-02    0.761E-03
RMM:   2    -0.931052070044E+02   -0.73082E-05   -0.18566E-05  3374   0.150E-02
 194 F= -.96146755E+02 E0= -.96140984E+02  d E =-.605963E-03
       N       E                     dE             d eps       ncg     rms          rms(c)
DAV:   1    -0.931051943083E+02    0.53879E-05   -0.49974E-05  4592   0.448E-02    0.554E-03
RMM:   2    -0.931051958060E+02   -0.14977E-05   -0.13752E-05  2710   0.137E-02
 195 F= -.96146749E+02 E0= -.96140957E+02  d E =-.599173E-03
       N       E                     dE             d eps       ncg     rms          rms(c)
DAV:   1    -0.931051985887E+02   -0.42804E-05   -0.14646E-05  4304   0.202E-02    0.395E-03
RMM:   2    -0.931051996617E+02   -0.10730E-05   -0.24980E-06  2489   0.523E-03
 196 F= -.96146750E+02 E0= -.96140965E+02  d E =-.600369E-03
       N       E                     dE             d eps       ncg     rms          rms(c)
DAV:   1    -0.931051974448E+02    0.11439E-05   -0.47453E-06  3424   0.188E-02    0.136E-03
RMM:   2    -0.931051976764E+02   -0.23161E-06   -0.99140E-07  2155   0.328E-03
 197 F= -.96146749E+02 E0= -.96140959E+02  d E =-.599496E-03
       N       E                     dE             d eps       ncg     rms          rms(c)
DAV:   1    -0.931052683103E+02   -0.70866E-04   -0.26410E-03  5456   0.109E-01    0.135E-02
RMM:   2    -0.931052728408E+02   -0.45305E-05   -0.62241E-05  4150   0.224E-02
 198 F= -.96146796E+02 E0= -.96141001E+02  d E =-.471616E-04
       N       E                     dE             d eps       ncg     rms          rms(c)
DAV:   1    -0.931054353999E+02   -0.16709E-03   -0.24092E-02  5440   0.328E-01    0.417E-02
RMM:   2    -0.931054829706E+02   -0.47571E-04   -0.55173E-04  5985   0.651E-02    0.274E-02
RMM:   3    -0.931055014701E+02   -0.18499E-04   -0.11204E-04  6203   0.333E-02    0.264E-02
RMM:   4    -0.931054890071E+02    0.12463E-04   -0.23508E-05  3962   0.150E-02    0.127E-02
RMM:   5    -0.931054900379E+02   -0.10309E-05   -0.74875E-06  3159   0.943E-03
 199 F= -.96146929E+02 E0= -.96141122E+02  d E =-.180553E-03
       N       E                     dE             d eps       ncg     rms          rms(c)
DAV:   1    -0.931056298422E+02   -0.14084E-03   -0.95907E-02  5440   0.652E-01    0.795E-02
RMM:   2    -0.931058056642E+02   -0.17582E-03   -0.21819E-03  6062   0.132E-01    0.446E-02
RMM:   3    -0.931058472628E+02   -0.41599E-04   -0.42574E-04  7487   0.671E-02    0.281E-02
RMM:   4    -0.931058680705E+02   -0.20808E-04   -0.71610E-05  5836   0.259E-02    0.286E-02
RMM:   5    -0.931058528025E+02    0.15268E-04   -0.25194E-05  4180   0.141E-02    0.104E-02
RMM:   6    -0.931058542769E+02   -0.14744E-05   -0.10060E-05  3311   0.916E-03
 200 F= -.96147126E+02 E0= -.96141304E+02  d E =-.377524E-03
