       N       E                     dE             d eps       ncg     rms          rms(c)
DAV:   1     0.225839399564E+04    0.22584E+04   -0.93043E+04  5744   0.159E+03
DAV:   2     0.283901742898E+03   -0.19745E+04   -0.19230E+04  5672   0.455E+02
DAV:   3    -0.608501830057E+02   -0.34475E+03   -0.33510E+03  6072   0.201E+02
DAV:   4    -0.927683151368E+02   -0.31918E+02   -0.31322E+02  6888   0.559E+01
DAV:   5    -0.959706261680E+02   -0.32023E+01   -0.31658E+01  8856   0.123E+01    0.423E+01
RMM:   6    -0.899709299119E+02    0.59997E+01   -0.12899E+01  6634   0.612E+00    0.272E+01
RMM:   7    -0.933848148033E+02   -0.34139E+01   -0.16788E+01  6954   0.743E+00    0.120E+01
RMM:   8    -0.913351055253E+02    0.20497E+01   -0.43578E+00  7376   0.404E+00    0.831E+00
RMM:   9    -0.894881051150E+02    0.18470E+01   -0.15455E+00  7083   0.251E+00    0.329E+00
RMM:  10    -0.894212006207E+02    0.66904E-01   -0.64689E-01  8805   0.151E+00    0.154E+00
RMM:  11    -0.894207130409E+02    0.48758E-03   -0.29958E-01  7973   0.103E+00    0.853E-01
RMM:  12    -0.894219588315E+02   -0.12458E-02   -0.11291E-01  9345   0.595E-01    0.508E-01
RMM:  13    -0.894276728725E+02   -0.57140E-02   -0.82077E-02  9330   0.441E-01    0.287E-01
RMM:  14    -0.894303667721E+02   -0.26939E-02   -0.39226E-02  9519   0.294E-01    0.257E-01
RMM:  15    -0.894324235722E+02   -0.20568E-02   -0.25818E-02  9495   0.226E-01    0.222E-01
RMM:  16    -0.894339536902E+02   -0.15301E-02   -0.14601E-02  9703   0.163E-01    0.187E-01
RMM:  17    -0.894348254311E+02   -0.87174E-03   -0.10200E-02  9462   0.132E-01    0.697E-02
RMM:  18    -0.894355649515E+02   -0.73952E-03   -0.62580E-03  9403   0.998E-02    0.564E-02
RMM:  19    -0.894360800805E+02   -0.51513E-03   -0.43880E-03  9373   0.805E-02    0.627E-02
RMM:  20    -0.894365330463E+02   -0.45297E-03   -0.28658E-03  9141   0.667E-02    0.349E-02
RMM:  21    -0.894368651884E+02   -0.33214E-03   -0.17965E-03  8877   0.542E-02    0.253E-02
RMM:  22    -0.894371327603E+02   -0.26757E-03   -0.12944E-03  8224   0.423E-02    0.261E-02
RMM:  23    -0.894372844852E+02   -0.15172E-03   -0.84125E-04  7328   0.334E-02    0.165E-02
RMM:  24    -0.894373771075E+02   -0.92622E-04   -0.55740E-04  6418   0.271E-02    0.141E-02
RMM:  25    -0.894374313745E+02   -0.54267E-04   -0.41208E-04  5434   0.221E-02    0.202E-02
RMM:  26    -0.894374580551E+02   -0.26681E-04   -0.26744E-04  4792   0.179E-02    0.228E-02
RMM:  27    -0.894374785321E+02   -0.20477E-04   -0.19671E-04  4448   0.146E-02    0.270E-02
RMM:  28    -0.894374943598E+02   -0.15828E-04   -0.12895E-04  4401   0.127E-02    0.174E-02
RMM:  29    -0.894375047065E+02   -0.10347E-04   -0.85379E-05  4183   0.109E-02    0.928E-03
RMM:  30    -0.894375107768E+02   -0.60703E-05   -0.58393E-05  3832   0.895E-03
   1 F= -.92564241E+02 E0= -.92563631E+02  d E =-.925642E+02
       N       E                     dE             d eps       ncg     rms          rms(c)
DAV:   1    -0.132551440940E+02    0.76182E+02   -0.64332E+03  6136   0.158E+02    0.336E+01
RMM:   2    -0.500619721553E+02   -0.36807E+02   -0.42408E+02  6728   0.494E+01    0.153E+01
RMM:   3    -0.614763948599E+02   -0.11414E+02   -0.13519E+02  7725   0.267E+01    0.178E+01
RMM:   4    -0.610031262082E+02    0.47327E+00   -0.41647E+01  7991   0.143E+01    0.170E+01
RMM:   5    -0.610778537853E+02   -0.74728E-01   -0.16141E+01  8769   0.680E+00    0.165E+01
RMM:   6    -0.594459431980E+02    0.16319E+01   -0.11452E+01  8547   0.495E+00    0.994E+00
RMM:   7    -0.594373548962E+02    0.85883E-02   -0.12889E+01  8402   0.545E+00    0.455E+00
RMM:   8    -0.592814992119E+02    0.15586E+00   -0.44930E+00  8261   0.381E+00    0.245E+00
RMM:   9    -0.595548929779E+02   -0.27339E+00   -0.28547E+00  8852   0.275E+00    0.201E+00
RMM:  10    -0.595729764379E+02   -0.18083E-01   -0.18667E+00  8971   0.221E+00    0.890E-01
RMM:  11    -0.597001790956E+02   -0.12720E+00   -0.12137E+00  9499   0.175E+00    0.107E+00
RMM:  12    -0.597553726756E+02   -0.55194E-01   -0.83507E-01  8754   0.159E+00    0.952E-01
RMM:  13    -0.598203164877E+02   -0.64944E-01   -0.66987E-01  8974   0.122E+00    0.623E-01
RMM:  14    -0.598839238973E+02   -0.63607E-01   -0.60858E-01  8884   0.105E+00    0.777E-01
RMM:  15    -0.599372645703E+02   -0.53341E-01   -0.63251E-01  8522   0.957E-01    0.510E-01
RMM:  16    -0.599975784842E+02   -0.60314E-01   -0.61990E-01  8295   0.861E-01    0.525E-01
RMM:  17    -0.600645094834E+02   -0.66931E-01   -0.62729E-01  8070   0.775E-01    0.679E-01
RMM:  18    -0.601299482462E+02   -0.65439E-01   -0.62943E-01  7841   0.703E-01    0.803E-01
RMM:  19    -0.601943422897E+02   -0.64394E-01   -0.62903E-01  7989   0.673E-01    0.969E-01
RMM:  20    -0.602496676071E+02   -0.55325E-01   -0.60257E-01  7686   0.606E-01    0.101E+00
RMM:  21    -0.603097097739E+02   -0.60042E-01   -0.59070E-01  7510   0.557E-01    0.108E+00
RMM:  22    -0.603653494401E+02   -0.55640E-01   -0.57290E-01  7362   0.518E-01    0.113E+00
RMM:  23    -0.604200675492E+02   -0.54718E-01   -0.55688E-01  7194   0.483E-01    0.119E+00
RMM:  24    -0.604750070896E+02   -0.54940E-01   -0.54091E-01  6884   0.450E-01    0.125E+00
RMM:  25    -0.605148377154E+02   -0.39831E-01   -0.49570E-01  7269   0.432E-01    0.123E+00
RMM:  26    -0.605506352532E+02   -0.35798E-01   -0.44389E-01  7256   0.407E-01    0.120E+00
RMM:  27    -0.605842234987E+02   -0.33588E-01   -0.38360E-01  6999   0.378E-01    0.119E+00
RMM:  28    -0.606173605867E+02   -0.33137E-01   -0.33379E-01  6658   0.349E-01    0.121E+00
RMM:  29    -0.606297146636E+02   -0.12354E-01   -0.29125E-01  7169   0.354E-01    0.112E+00
RMM:  30    -0.606387352903E+02   -0.90206E-02   -0.27034E-01  7278   0.358E-01    0.960E-01
RMM:  31    -0.606625153265E+02   -0.23780E-01   -0.25312E-01  7006   0.317E-01    0.940E-01
RMM:  32    -0.606865764491E+02   -0.24061E-01   -0.24432E-01  6869   0.288E-01    0.942E-01
RMM:  33    -0.607109015613E+02   -0.24325E-01   -0.23993E-01  6672   0.271E-01    0.942E-01
RMM:  34    -0.607347178439E+02   -0.23816E-01   -0.23744E-01  6558   0.254E-01    0.946E-01
RMM:  35    -0.607544572498E+02   -0.19739E-01   -0.23355E-01  6749   0.249E-01    0.912E-01
RMM:  36    -0.607782215593E+02   -0.23764E-01   -0.22263E-01  6440   0.229E-01    0.929E-01
RMM:  37    -0.607989111043E+02   -0.20690E-01   -0.19812E-01  6257   0.214E-01    0.945E-01
RMM:  38    -0.608178396890E+02   -0.18929E-01   -0.16682E-01  6321   0.202E-01    0.970E-01
RMM:  39    -0.608241202300E+02   -0.62805E-02   -0.13096E-01  6732   0.208E-01    0.910E-01
RMM:  40    -0.608283014542E+02   -0.41812E-02   -0.10084E-01  6863   0.206E-01    0.840E-01
RMM:  41    -0.608353837048E+02   -0.70823E-02   -0.78641E-02  6564   0.186E-01    0.825E-01
RMM:  42    -0.608391129018E+02   -0.37292E-02   -0.58705E-02  6635   0.177E-01    0.804E-01
RMM:  43    -0.608405075041E+02   -0.13946E-02   -0.45646E-02  6633   0.170E-01    0.773E-01
RMM:  44    -0.608384685703E+02    0.20389E-02   -0.36133E-02  6732   0.174E-01    0.705E-01
RMM:  45    -0.608386677638E+02   -0.19919E-03   -0.28927E-02  6590   0.163E-01    0.662E-01
RMM:  46    -0.608426166588E+02   -0.39489E-02   -0.23132E-02  6324   0.147E-01    0.682E-01
RMM:  47    -0.608305057726E+02    0.12111E-01   -0.24416E-02  7012   0.209E-01    0.461E-01
RMM:  48    -0.608302551617E+02    0.25061E-03   -0.18219E-02  6608   0.175E-01    0.386E-01
RMM:  49    -0.608305688955E+02   -0.31373E-03   -0.12292E-02  6489   0.155E-01    0.361E-01
RMM:  50    -0.608311416994E+02   -0.57280E-03   -0.99271E-03  6348   0.141E-01    0.342E-01
RMM:  51    -0.608318119609E+02   -0.67026E-03   -0.81967E-03  5783   0.129E-01    0.339E-01
RMM:  52    -0.608350403618E+02   -0.32284E-02   -0.81134E-03  6192   0.130E-01    0.396E-01
RMM:  53    -0.608340064876E+02    0.10339E-02   -0.57215E-03  6045   0.122E-01    0.369E-01
RMM:  54    -0.608343463296E+02   -0.33984E-03   -0.48396E-03  5660   0.114E-01    0.366E-01
RMM:  55    -0.608330869817E+02    0.12593E-02   -0.36231E-03  6009   0.119E-01    0.324E-01
RMM:  56    -0.608324774343E+02    0.60955E-03   -0.24592E-03  5999   0.117E-01    0.291E-01
RMM:  57    -0.608288638158E+02    0.36136E-02   -0.41123E-03  6633   0.164E-01    0.125E-01
RMM:  58    -0.608295902874E+02   -0.72647E-03   -0.27458E-03  6089   0.129E-01    0.152E-01
RMM:  59    -0.608297071583E+02   -0.11687E-03   -0.10990E-03  5976   0.112E-01    0.158E-01
RMM:  60    -0.608296466351E+02    0.60523E-04   -0.49769E-04  5377   0.103E-01    0.159E-01
RMM:  61    -0.608297575226E+02   -0.11089E-03   -0.86101E-04  5366   0.100E-01    0.169E-01
RMM:  62    -0.608289797222E+02    0.77780E-03    0.26339E-04  6013   0.108E-01    0.126E-01
RMM:  63    -0.608286401003E+02    0.33962E-03    0.15524E-04  5907   0.103E-01    0.101E-01
RMM:  64    -0.608284013994E+02    0.23870E-03    0.36782E-04  5540   0.976E-02    0.915E-02
RMM:  65    -0.608281304075E+02    0.27099E-03    0.71465E-04  5513   0.965E-02    0.803E-02
RMM:  66    -0.608278585376E+02    0.27187E-03    0.95907E-04  5557   0.953E-02    0.715E-02
RMM:  67    -0.608275176856E+02    0.34085E-03    0.12669E-03  6024   0.105E-01    0.499E-02
RMM:  68    -0.608273150760E+02    0.20261E-03    0.88296E-04  5543   0.944E-02    0.541E-02
RMM:  69    -0.608270977734E+02    0.21730E-03    0.10741E-03  4161   0.893E-02    0.577E-02
RMM:  70    -0.608268507150E+02    0.24706E-03    0.14221E-03  3679   0.869E-02    0.617E-02
RMM:  71    -0.608266211540E+02    0.22956E-03    0.12538E-03  3394   0.855E-02    0.651E-02
RMM:  72    -0.608263577546E+02    0.26340E-03    0.16245E-03  4022   0.853E-02    0.665E-02
RMM:  73    -0.608261078353E+02    0.24992E-03    0.14897E-03  3504   0.827E-02    0.694E-02
RMM:  74    -0.608258471377E+02    0.26070E-03    0.16157E-03  2908   0.815E-02    0.726E-02
RMM:  75    -0.608255849573E+02    0.26218E-03    0.16389E-03  3458   0.816E-02    0.748E-02
RMM:  76    -0.608253139116E+02    0.27105E-03    0.17078E-03  4058   0.820E-02    0.756E-02
RMM:  77    -0.608250537190E+02    0.26019E-03    0.16589E-03  3478   0.800E-02    0.797E-02
RMM:  78    -0.608247861462E+02    0.26757E-03    0.17638E-03  3681   0.796E-02    0.821E-02
RMM:  79    -0.608245256266E+02    0.26052E-03    0.17289E-03  3420   0.791E-02    0.851E-02
RMM:  80    -0.608242541825E+02    0.27144E-03    0.18492E-03  3527   0.786E-02    0.878E-02
RMM:  81    -0.608239842921E+02    0.26989E-03    0.18298E-03  3006   0.774E-02    0.902E-02
RMM:  82    -0.608237112121E+02    0.27308E-03    0.18678E-03  2849   0.767E-02    0.928E-02
RMM:  83    -0.608234397581E+02    0.27145E-03    0.18578E-03  2783   0.763E-02    0.950E-02
RMM:  84    -0.608231627846E+02    0.27697E-03    0.19160E-03  2731   0.754E-02    0.971E-02
RMM:  85    -0.608228928389E+02    0.26995E-03    0.18643E-03  2550   0.747E-02    0.992E-02
RMM:  86    -0.608226194463E+02    0.27339E-03    0.19115E-03  2573   0.737E-02    0.101E-01
RMM:  87    -0.608223516962E+02    0.26775E-03    0.18668E-03  2534   0.732E-02    0.103E-01
RMM:  88    -0.608220801994E+02    0.27150E-03    0.18984E-03  2458   0.725E-02    0.105E-01
RMM:  89    -0.608218148675E+02    0.26533E-03    0.18491E-03  2495   0.724E-02    0.107E-01
RMM:  90    -0.608215489724E+02    0.26590E-03    0.18753E-03  2449   0.719E-02    0.108E-01
RMM:  91    -0.608212904656E+02    0.25851E-03    0.18157E-03  2417   0.712E-02    0.110E-01
RMM:  92    -0.608210302821E+02    0.26018E-03    0.18365E-03  2936   0.714E-02    0.111E-01
RMM:  93    -0.608207800223E+02    0.25026E-03    0.17719E-03  2564   0.708E-02    0.113E-01
RMM:  94    -0.608205297478E+02    0.25027E-03    0.17814E-03  2450   0.701E-02    0.114E-01
RMM:  95    -0.608202872843E+02    0.24246E-03    0.17193E-03  2683   0.704E-02    0.116E-01
RMM:  96    -0.608200516536E+02    0.23563E-03    0.17029E-03  3545   0.709E-02    0.118E-01
RMM:  97    -0.608198318077E+02    0.21985E-03    0.16206E-03  3778   0.706E-02    0.122E-01
RMM:  98    -0.608195927812E+02    0.23903E-03    0.16805E-03  2546   0.681E-02    0.124E-01
RMM:  99    -0.608193595861E+02    0.23320E-03    0.16195E-03  2744   0.678E-02    0.125E-01
RMM: 100    -0.608191312609E+02    0.22833E-03    0.16174E-03  2534   0.681E-02
   2 F= -.64010073E+02 E0= -.64008525E+02  d E =0.285542E+02
       N       E                     dE             d eps       ncg     rms          rms(c)
DAV:   1    -0.546599245680E+02    0.61594E+01   -0.14761E+03  6080   0.982E+01    0.310E+01
RMM:   2    -0.760425611162E+02   -0.21383E+02   -0.24826E+02  6862   0.432E+01    0.973E+01
RMM:   3    -0.786645990648E+02   -0.26220E+01   -0.57859E+01  7434   0.190E+01    0.112E+01
RMM:   4    -0.800876398701E+02   -0.14230E+01   -0.12586E+01  7227   0.778E+00    0.845E+00
RMM:   5    -0.795277572484E+02    0.55988E+00   -0.25944E+00  7424   0.391E+00    0.711E+00
RMM:   6    -0.791849715811E+02    0.34279E+00   -0.10674E+00  7765   0.255E+00    0.245E+00
RMM:   7    -0.792278069061E+02   -0.42835E-01   -0.41315E-01  8675   0.147E+00    0.862E-01
RMM:   8    -0.792399753556E+02   -0.12168E-01   -0.16112E-01  8845   0.964E-01    0.664E-01
RMM:   9    -0.792501925134E+02   -0.10217E-01   -0.96180E-02  9373   0.701E-01    0.666E-01
RMM:  10    -0.792564769334E+02   -0.62844E-02   -0.57110E-02  9087   0.560E-01    0.713E-01
RMM:  11    -0.792609241372E+02   -0.44472E-02   -0.38320E-02  8399   0.469E-01    0.798E-01
RMM:  12    -0.792640609623E+02   -0.31368E-02   -0.26761E-02  7888   0.409E-01    0.895E-01
RMM:  13    -0.792664358173E+02   -0.23749E-02   -0.20065E-02  7679   0.362E-01    0.999E-01
RMM:  14    -0.792682195481E+02   -0.17837E-02   -0.14821E-02  7388   0.326E-01    0.114E+00
RMM:  15    -0.792695822312E+02   -0.13627E-02   -0.11589E-02  7210   0.296E-01    0.126E+00
RMM:  16    -0.792704982284E+02   -0.91600E-03   -0.95649E-03  7031   0.273E-01    0.108E+00
RMM:  17    -0.792713860217E+02   -0.88779E-03   -0.79722E-03  6827   0.252E-01    0.116E+00
RMM:  18    -0.792720590462E+02   -0.67302E-03   -0.72684E-03  6825   0.237E-01    0.893E-01
RMM:  19    -0.792726757298E+02   -0.61668E-03   -0.65818E-03  6523   0.222E-01    0.697E-01
RMM:  20    -0.792732614971E+02   -0.58577E-03   -0.57535E-03  6191   0.210E-01    0.577E-01
RMM:  21    -0.792738677968E+02   -0.60630E-03   -0.57872E-03  5788   0.198E-01    0.541E-01
RMM:  22    -0.792744768867E+02   -0.60909E-03   -0.57338E-03  5626   0.188E-01    0.531E-01
RMM:  23    -0.792750699668E+02   -0.59308E-03   -0.56875E-03  5606   0.180E-01    0.526E-01
RMM:  24    -0.792756394175E+02   -0.56945E-03   -0.53279E-03  5904   0.174E-01    0.494E-01
RMM:  25    -0.792762976758E+02   -0.65826E-03   -0.56987E-03  6492   0.174E-01    0.203E-01
RMM:  26    -0.792768217114E+02   -0.52404E-03   -0.55067E-03  6097   0.164E-01    0.110E-01
RMM:  27    -0.792774006210E+02   -0.57891E-03   -0.56593E-03  5716   0.157E-01    0.870E-02
RMM:  28    -0.792780628663E+02   -0.66225E-03   -0.62456E-03  6025   0.154E-01    0.442E-02
RMM:  29    -0.792787036785E+02   -0.64081E-03   -0.63229E-03  5280   0.148E-01    0.309E-02
RMM:  30    -0.792793228168E+02   -0.61914E-03   -0.61536E-03  5192   0.144E-01    0.262E-02
RMM:  31    -0.792799645648E+02   -0.64175E-03   -0.64008E-03  5486   0.140E-01    0.124E-02
RMM:  32    -0.792806223392E+02   -0.65777E-03   -0.65419E-03  5091   0.136E-01    0.671E-03
RMM:  33    -0.792812932962E+02   -0.67096E-03   -0.66386E-03  4518   0.132E-01    0.157E-02
RMM:  34    -0.792819775120E+02   -0.68422E-03   -0.68235E-03  4477   0.129E-01    0.277E-02
RMM:  35    -0.792826843540E+02   -0.70684E-03   -0.70623E-03  4399   0.126E-01    0.394E-02
RMM:  36    -0.792833976939E+02   -0.71334E-03   -0.71606E-03  4417   0.124E-01    0.503E-02
RMM:  37    -0.792841381335E+02   -0.74044E-03   -0.74445E-03  4450   0.121E-01    0.608E-02
RMM:  38    -0.792848811372E+02   -0.74300E-03   -0.74711E-03  4376   0.119E-01    0.722E-02
RMM:  39    -0.792856529369E+02   -0.77180E-03   -0.77589E-03  4394   0.116E-01    0.835E-02
RMM:  40    -0.792864478888E+02   -0.79495E-03   -0.80117E-03  4340   0.114E-01    0.948E-02
RMM:  41    -0.792872528804E+02   -0.80499E-03   -0.81515E-03  4289   0.112E-01    0.107E-01
RMM:  42    -0.792880713979E+02   -0.81852E-03   -0.83089E-03  4310   0.110E-01    0.119E-01
RMM:  43    -0.792889069409E+02   -0.83554E-03   -0.84950E-03  4180   0.108E-01    0.131E-01
RMM:  44    -0.792897541986E+02   -0.84726E-03   -0.86502E-03  4234   0.107E-01    0.143E-01
RMM:  45    -0.792906142219E+02   -0.86002E-03   -0.88299E-03  4175   0.105E-01    0.156E-01
RMM:  46    -0.792914828365E+02   -0.86861E-03   -0.89731E-03  4160   0.104E-01    0.169E-01
RMM:  47    -0.792923666104E+02   -0.88377E-03   -0.91640E-03  4135   0.102E-01    0.181E-01
RMM:  48    -0.792932617489E+02   -0.89514E-03   -0.93098E-03  4124   0.101E-01    0.194E-01
RMM:  49    -0.792941675434E+02   -0.90579E-03   -0.94323E-03  4075   0.995E-02    0.208E-01
RMM:  50    -0.792950874839E+02   -0.91994E-03   -0.95855E-03  4089   0.981E-02    0.221E-01
RMM:  51    -0.792960209954E+02   -0.93351E-03   -0.97379E-03  4014   0.968E-02    0.235E-01
RMM:  52    -0.792969679855E+02   -0.94699E-03   -0.98958E-03  4010   0.957E-02    0.248E-01
RMM:  53    -0.792979340324E+02   -0.96605E-03   -0.10143E-02  4002   0.948E-02    0.262E-01
RMM:  54    -0.792989304427E+02   -0.99641E-03   -0.10502E-02  4010   0.937E-02    0.276E-01
RMM:  55    -0.792999390240E+02   -0.10086E-02   -0.10676E-02  3961   0.924E-02    0.291E-01
RMM:  56    -0.793009593089E+02   -0.10203E-02   -0.10821E-02  4034   0.916E-02    0.305E-01
RMM:  57    -0.793020068039E+02   -0.10475E-02   -0.11089E-02  3961   0.901E-02    0.320E-01
RMM:  58    -0.793030702049E+02   -0.10634E-02   -0.11276E-02  3967   0.894E-02    0.335E-01
RMM:  59    -0.793041584343E+02   -0.10882E-02   -0.11541E-02  3926   0.882E-02    0.350E-01
RMM:  60    -0.793052718915E+02   -0.11135E-02   -0.11809E-02  3969   0.875E-02    0.366E-01
RMM:  61    -0.793064155642E+02   -0.11437E-02   -0.12138E-02  3921   0.863E-02    0.382E-01
RMM:  62    -0.793075862078E+02   -0.11706E-02   -0.12437E-02  3925   0.857E-02    0.398E-01
RMM:  63    -0.793087898771E+02   -0.12037E-02   -0.12811E-02  3899   0.849E-02    0.415E-01
RMM:  64    -0.793100247902E+02   -0.12349E-02   -0.13170E-02  3843   0.838E-02    0.432E-01
RMM:  65    -0.793112875233E+02   -0.12627E-02   -0.13500E-02  3909   0.832E-02    0.450E-01
RMM:  66    -0.793125765668E+02   -0.12890E-02   -0.13793E-02  3876   0.821E-02    0.467E-01
RMM:  67    -0.793138816832E+02   -0.13051E-02   -0.13968E-02  3837   0.815E-02    0.485E-01
RMM:  68    -0.793152005748E+02   -0.13189E-02   -0.14128E-02  3842   0.805E-02    0.502E-01
RMM:  69    -0.793165294401E+02   -0.13289E-02   -0.14233E-02  3908   0.798E-02    0.519E-01
RMM:  70    -0.793178618109E+02   -0.13324E-02   -0.14262E-02  3820   0.789E-02    0.536E-01
RMM:  71    -0.793191992897E+02   -0.13375E-02   -0.14272E-02  3832   0.779E-02    0.552E-01
RMM:  72    -0.793205396226E+02   -0.13403E-02   -0.14235E-02  3778   0.770E-02    0.566E-01
RMM:  73    -0.793218695428E+02   -0.13299E-02   -0.14056E-02  3739   0.760E-02    0.580E-01
RMM:  74    -0.793231756726E+02   -0.13061E-02   -0.13692E-02  3705   0.751E-02    0.592E-01
RMM:  75    -0.793245054345E+02   -0.13298E-02   -0.13774E-02  3645   0.742E-02    0.603E-01
RMM:  76    -0.793258683828E+02   -0.13629E-02   -0.13990E-02  3535   0.731E-02    0.613E-01
RMM:  77    -0.793272885598E+02   -0.14202E-02   -0.14432E-02  3537   0.725E-02    0.624E-01
RMM:  78    -0.793287941663E+02   -0.15056E-02   -0.15202E-02  3571   0.721E-02    0.634E-01
RMM:  79    -0.793303772063E+02   -0.15830E-02   -0.15932E-02  3428   0.711E-02    0.645E-01
RMM:  80    -0.793320707225E+02   -0.16935E-02   -0.16938E-02  3378   0.704E-02    0.655E-01
RMM:  81    -0.793338734032E+02   -0.18027E-02   -0.17972E-02  3396   0.699E-02    0.666E-01
RMM:  82    -0.793358099413E+02   -0.19365E-02   -0.19260E-02  3385   0.695E-02    0.675E-01
RMM:  83    -0.793379069719E+02   -0.20970E-02   -0.20782E-02  3401   0.690E-02    0.686E-01
RMM:  84    -0.793402415407E+02   -0.23346E-02   -0.23003E-02  3392   0.682E-02    0.697E-01
RMM:  85    -0.793428815707E+02   -0.26400E-02   -0.25985E-02  3401   0.678E-02    0.710E-01
RMM:  86    -0.793460062653E+02   -0.31247E-02   -0.30656E-02  3488   0.673E-02    0.724E-01
RMM:  87    -0.793502670310E+02   -0.42608E-02   -0.41940E-02  3567   0.670E-02    0.740E-01
RMM:  88    -0.793559312431E+02   -0.56642E-02   -0.55462E-02  3656   0.669E-02    0.763E-01
RMM:  89    -0.793601849737E+02   -0.42537E-02   -0.40689E-02  3801   0.673E-02    0.783E-01
RMM:  90    -0.793626834035E+02   -0.24984E-02   -0.23662E-02  3759   0.654E-02    0.798E-01
RMM:  91    -0.793636584175E+02   -0.97501E-03   -0.91545E-03  3610   0.637E-02    0.806E-01
RMM:  92    -0.793651309790E+02   -0.14726E-02   -0.15336E-02  3691   0.626E-02    0.815E-01
RMM:  93    -0.793661346961E+02   -0.10037E-02   -0.10496E-02  3706   0.618E-02    0.822E-01
RMM:  94    -0.793667662295E+02   -0.63153E-03   -0.65395E-03  3473   0.601E-02    0.828E-01
RMM:  95    -0.793673163269E+02   -0.55010E-03   -0.60448E-03  3499   0.592E-02    0.834E-01
RMM:  96    -0.793677997319E+02   -0.48340E-03   -0.52687E-03  3348   0.581E-02    0.840E-01
RMM:  97    -0.793682028981E+02   -0.40317E-03   -0.48404E-03  3627   0.585E-02    0.841E-01
RMM:  98    -0.793686375848E+02   -0.43469E-03   -0.45541E-03  3491   0.572E-02    0.848E-01
RMM:  99    -0.793690431279E+02   -0.40554E-03   -0.42777E-03  3468   0.567E-02    0.856E-01
RMM: 100    -0.793693604689E+02   -0.31734E-03   -0.41359E-03  3372   0.560E-02
   3 F= -.82537627E+02 E0= -.82535026E+02  d E =0.100266E+02
       N       E                     dE             d eps       ncg     rms          rms(c)
DAV:   1    -0.870790417667E+02   -0.77100E+01   -0.15466E+02  6744   0.163E+01    0.575E+00
RMM:   2    -0.898082692297E+02   -0.27292E+01   -0.36124E+01  6446   0.135E+01    0.508E+00
RMM:   3    -0.914544673220E+02   -0.16462E+01   -0.12272E+01  6966   0.536E+00    0.272E+00
RMM:   4    -0.915696283054E+02   -0.11516E+00   -0.21050E+00  7782   0.313E+00    0.201E+00
RMM:   5    -0.915784987739E+02   -0.88705E-02   -0.50824E-01  7830   0.122E+00    0.143E+00
RMM:   6    -0.915862778429E+02   -0.77791E-02   -0.24515E-01  8050   0.716E-01    0.566E-01
RMM:   7    -0.916004175299E+02   -0.14140E-01   -0.14552E-01  8841   0.453E-01    0.216E-01
RMM:   8    -0.916095226765E+02   -0.91051E-02   -0.87987E-02  8543   0.298E-01    0.147E-01
RMM:   9    -0.916163396527E+02   -0.68170E-02   -0.65800E-02  7587   0.223E-01    0.990E-02
RMM:  10    -0.916211463823E+02   -0.48067E-02   -0.46318E-02  7007   0.184E-01    0.343E-02
RMM:  11    -0.916251059347E+02   -0.39596E-02   -0.37838E-02  6950   0.145E-01    0.140E-02
RMM:  12    -0.916281700045E+02   -0.30641E-02   -0.29160E-02  6687   0.121E-01    0.932E-03
RMM:  13    -0.916308086727E+02   -0.26387E-02   -0.25019E-02  6480   0.104E-01    0.127E-02
RMM:  14    -0.916329093174E+02   -0.21006E-02   -0.20265E-02  6071   0.896E-02    0.113E-02
RMM:  15    -0.916347882185E+02   -0.18789E-02   -0.18051E-02  6002   0.794E-02    0.106E-02
RMM:  16    -0.916363641383E+02   -0.15759E-02   -0.15157E-02  5691   0.719E-02    0.664E-03
RMM:  17    -0.916377928406E+02   -0.14287E-02   -0.13793E-02  5586   0.647E-02    0.286E-03
RMM:  18    -0.916390062049E+02   -0.12134E-02   -0.11882E-02  4844   0.584E-02    0.368E-03
RMM:  19    -0.916401306293E+02   -0.11244E-02   -0.11056E-02  4333   0.538E-02    0.819E-03
RMM:  20    -0.916411271427E+02   -0.99651E-03   -0.97484E-03  4019   0.503E-02    0.113E-02
RMM:  21    -0.916420704434E+02   -0.94330E-03   -0.92319E-03  3825   0.473E-02    0.151E-02
RMM:  22    -0.916429255795E+02   -0.85514E-03   -0.83575E-03  3483   0.448E-02    0.192E-02
RMM:  23    -0.916437424518E+02   -0.81687E-03   -0.79548E-03  3839   0.432E-02    0.220E-02
RMM:  24    -0.916445010743E+02   -0.75862E-03   -0.73789E-03  3191   0.410E-02    0.265E-02
RMM:  25    -0.916452383673E+02   -0.73729E-03   -0.71594E-03  3082   0.397E-02    0.312E-02
RMM:  26    -0.916459362120E+02   -0.69784E-03   -0.67601E-03  3024   0.384E-02    0.363E-02
RMM:  27    -0.916466214434E+02   -0.68523E-03   -0.66301E-03  2990   0.375E-02    0.416E-02
RMM:  28    -0.916472814026E+02   -0.65996E-03   -0.63719E-03  2899   0.364E-02    0.472E-02
RMM:  29    -0.916479362387E+02   -0.65484E-03   -0.63139E-03  2857   0.357E-02    0.533E-02
RMM:  30    -0.916485757614E+02   -0.63952E-03   -0.61582E-03  2839   0.348E-02    0.598E-02
RMM:  31    -0.916492156160E+02   -0.63985E-03   -0.61591E-03  2875   0.340E-02    0.667E-02
RMM:  32    -0.916498462941E+02   -0.63068E-03   -0.60672E-03  2760   0.331E-02    0.741E-02
RMM:  33    -0.916504829454E+02   -0.63665E-03   -0.61254E-03  2828   0.327E-02    0.819E-02
RMM:  34    -0.916511136034E+02   -0.63066E-03   -0.60643E-03  2814   0.321E-02    0.902E-02
RMM:  35    -0.916517521188E+02   -0.63852E-03   -0.61431E-03  2824   0.315E-02    0.990E-02
RMM:  36    -0.916523921473E+02   -0.64003E-03   -0.61566E-03  2771   0.308E-02    0.108E-01
RMM:  37    -0.916530398111E+02   -0.64766E-03   -0.62341E-03  2806   0.302E-02    0.118E-01
RMM:  38    -0.916536911262E+02   -0.65132E-03   -0.62735E-03  2820   0.296E-02    0.129E-01
RMM:  39    -0.916543505099E+02   -0.65938E-03   -0.63588E-03  2767   0.290E-02    0.139E-01
RMM:  40    -0.916550151149E+02   -0.66460E-03   -0.64169E-03  2797   0.286E-02    0.151E-01
RMM:  41    -0.916556879873E+02   -0.67287E-03   -0.65040E-03  2837   0.281E-02    0.163E-01
RMM:  42    -0.916563668553E+02   -0.67887E-03   -0.65697E-03  2763   0.276E-02    0.175E-01
RMM:  43    -0.916570532900E+02   -0.68643E-03   -0.66545E-03  2850   0.272E-02    0.188E-01
RMM:  44    -0.916577433529E+02   -0.69006E-03   -0.67009E-03  2798   0.265E-02    0.200E-01
RMM:  45    -0.916584458390E+02   -0.70249E-03   -0.68333E-03  2855   0.263E-02    0.213E-01
RMM:  46    -0.916591609537E+02   -0.71511E-03   -0.69704E-03  2820   0.258E-02    0.226E-01
RMM:  47    -0.916599041791E+02   -0.74323E-03   -0.72176E-03  2908   0.253E-02    0.240E-01
RMM:  48    -0.916606666415E+02   -0.76246E-03   -0.74780E-03  2841   0.250E-02    0.255E-01
RMM:  49    -0.916614788964E+02   -0.81225E-03   -0.79965E-03  2851   0.245E-02    0.270E-01
RMM:  50    -0.916623757939E+02   -0.89690E-03   -0.88733E-03  2932   0.242E-02    0.288E-01
RMM:  51    -0.916634104944E+02   -0.10347E-02   -0.10295E-02  3045   0.238E-02    0.310E-01
RMM:  52    -0.916645014191E+02   -0.10909E-02   -0.10916E-02  3118   0.234E-02    0.334E-01
RMM:  53    -0.916653505607E+02   -0.84914E-03   -0.85707E-03  3213   0.230E-02    0.354E-01
RMM:  54    -0.916659716952E+02   -0.62113E-03   -0.63129E-03  3046   0.221E-02    0.369E-01
RMM:  55    -0.916662693095E+02   -0.29761E-03   -0.30591E-03  2910   0.213E-02    0.374E-01
RMM:  56    -0.916666247629E+02   -0.35545E-03   -0.35856E-03  2588   0.205E-02    0.382E-01
RMM:  57    -0.916669081104E+02   -0.28335E-03   -0.28566E-03  2505   0.202E-02    0.387E-01
RMM:  58    -0.916671911866E+02   -0.28308E-03   -0.27556E-03  2626   0.200E-02    0.392E-01
RMM:  59    -0.916674415681E+02   -0.25038E-03   -0.24853E-03  2536   0.195E-02    0.395E-01
RMM:  60    -0.916676759650E+02   -0.23440E-03   -0.23828E-03  2345   0.191E-02    0.399E-01
RMM:  61    -0.916679073072E+02   -0.23134E-03   -0.22939E-03  2325   0.188E-02    0.402E-01
RMM:  62    -0.916681855292E+02   -0.27822E-03   -0.22915E-03  3002   0.193E-02    0.405E-01
RMM:  63    -0.916684209091E+02   -0.23538E-03   -0.21852E-03  2526   0.184E-02    0.408E-01
RMM:  64    -0.916686349132E+02   -0.21400E-03   -0.21435E-03  2316   0.180E-02    0.410E-01
RMM:  65    -0.916688291071E+02   -0.19419E-03   -0.19438E-03  2409   0.180E-02    0.411E-01
RMM:  66    -0.916690153732E+02   -0.18627E-03   -0.18778E-03  2342   0.175E-02    0.413E-01
RMM:  67    -0.916692234115E+02   -0.20804E-03   -0.18497E-03  3913   0.192E-02    0.414E-01
RMM:  68    -0.916693933218E+02   -0.16991E-03   -0.17731E-03  2819   0.173E-02    0.415E-01
RMM:  69    -0.916695485972E+02   -0.15528E-03   -0.17411E-03  3175   0.179E-02    0.415E-01
RMM:  70    -0.916697066449E+02   -0.15805E-03   -0.17050E-03  2570   0.170E-02    0.415E-01
RMM:  71    -0.916698824408E+02   -0.17580E-03   -0.16902E-03  2214   0.170E-02    0.416E-01
RMM:  72    -0.916699237524E+02   -0.41312E-04   -0.16807E-03  4054   0.215E-02    0.413E-01
RMM:  73    -0.916700412112E+02   -0.11746E-03   -0.16526E-03  3034   0.173E-02    0.412E-01
RMM:  74    -0.916702013190E+02   -0.16011E-03   -0.16432E-03  2525   0.167E-02    0.412E-01
RMM:  75    -0.916703558521E+02   -0.15453E-03   -0.16155E-03  2323   0.163E-02    0.412E-01
RMM:  76    -0.916705118682E+02   -0.15602E-03   -0.15823E-03  2300   0.164E-02    0.413E-01
RMM:  77    -0.916705300304E+02   -0.18162E-04   -0.15740E-03  3866   0.209E-02    0.409E-01
RMM:  78    -0.916706845359E+02   -0.15451E-03   -0.15438E-03  2962   0.163E-02    0.409E-01
RMM:  79    -0.916708454476E+02   -0.16091E-03   -0.15325E-03  2746   0.166E-02    0.409E-01
RMM:  80    -0.916709956363E+02   -0.15019E-03   -0.15037E-03  2980   0.163E-02    0.409E-01
RMM:  81    -0.916711268875E+02   -0.13125E-03   -0.14942E-03  2816   0.162E-02    0.408E-01
RMM:  82    -0.916712031693E+02   -0.76282E-04   -0.14853E-03  3789   0.184E-02    0.406E-01
RMM:  83    -0.916713418514E+02   -0.13868E-03   -0.14610E-03  2854   0.157E-02    0.406E-01
RMM:  84    -0.916715031169E+02   -0.16127E-03   -0.14589E-03  2751   0.156E-02    0.406E-01
RMM:  85    -0.916716523017E+02   -0.14918E-03   -0.14517E-03  2202   0.148E-02    0.406E-01
RMM:  86    -0.916717949547E+02   -0.14265E-03   -0.14448E-03  2161   0.152E-02    0.405E-01
RMM:  87    -0.916717381005E+02    0.56854E-04   -0.14883E-03  5319   0.287E-02    0.400E-01
RMM:  88    -0.916716811928E+02    0.56908E-04   -0.14539E-03  4036   0.201E-02    0.396E-01
RMM:  89    -0.916717163447E+02   -0.35152E-04   -0.14487E-03  3506   0.179E-02    0.393E-01
RMM:  90    -0.916718213490E+02   -0.10500E-03   -0.14386E-03  3365   0.164E-02    0.392E-01
RMM:  91    -0.916719694557E+02   -0.14811E-03   -0.14118E-03  3427   0.166E-02    0.392E-01
RMM:  92    -0.916717215584E+02    0.24790E-03   -0.16013E-03  5978   0.460E-02    0.383E-01
RMM:  93    -0.916719276147E+02   -0.20606E-03   -0.13788E-03  5200   0.235E-02    0.383E-01
RMM:  94    -0.916721196834E+02   -0.19207E-03   -0.13675E-03  3703   0.178E-02    0.383E-01
RMM:  95    -0.916723403533E+02   -0.22067E-03   -0.13317E-03  3675   0.182E-02    0.385E-01
RMM:  96    -0.916724446989E+02   -0.10435E-03   -0.13349E-03  3565   0.165E-02    0.383E-01
RMM:  97    -0.916707684596E+02    0.16762E-02   -0.21127E-03  6387   0.778E-02    0.337E-01
RMM:  98    -0.916696816226E+02    0.10868E-02   -0.24089E-03  6634   0.796E-02    0.289E-01
RMM:  99    -0.916694836732E+02    0.19795E-03   -0.19725E-03  5923   0.513E-02    0.263E-01
RMM: 100    -0.916696433977E+02   -0.15972E-03   -0.15934E-03  5500   0.307E-02
   4 F= -.94830285E+02 E0= -.94826592E+02  d E =-.226604E+01
       N       E                     dE             d eps       ncg     rms          rms(c)
DAV:   1    -0.931761444219E+02   -0.15067E+01   -0.99460E+01  5904   0.190E+01    0.232E+00
RMM:   2    -0.937083400520E+02   -0.53220E+00   -0.54938E+00  5996   0.709E+00    0.115E+00
RMM:   3    -0.938040537380E+02   -0.95714E-01   -0.11423E+00  7601   0.341E+00    0.688E-01
RMM:   4    -0.938169372342E+02   -0.12883E-01   -0.16518E-01  8193   0.101E+00    0.642E-01
RMM:   5    -0.938220842037E+02   -0.51470E-02   -0.35092E-02  7987   0.363E-01    0.458E-01
RMM:   6    -0.938214884938E+02    0.59571E-03   -0.15925E-02  7470   0.209E-01    0.291E-01
RMM:   7    -0.938211112675E+02    0.37723E-03   -0.12564E-02  6929   0.197E-01    0.226E-01
RMM:   8    -0.938215949597E+02   -0.48369E-03   -0.66425E-03  6739   0.124E-01    0.764E-02
RMM:   9    -0.938221563294E+02   -0.56137E-03   -0.55604E-03  7046   0.813E-02    0.123E-01
RMM:  10    -0.938225210758E+02   -0.36475E-03   -0.41723E-03  6368   0.767E-02    0.627E-02
RMM:  11    -0.938229305431E+02   -0.40947E-03   -0.34251E-03  6706   0.434E-02    0.498E-02
RMM:  12    -0.938232579826E+02   -0.32744E-03   -0.33118E-03  5973   0.416E-02    0.301E-02
RMM:  13    -0.938235533670E+02   -0.29538E-03   -0.28624E-03  5311   0.235E-02    0.189E-02
RMM:  14    -0.938238559951E+02   -0.30263E-03   -0.27636E-03  4922   0.190E-02    0.172E-02
RMM:  15    -0.938242000059E+02   -0.34401E-03   -0.25761E-03  4950   0.193E-02    0.775E-03
RMM:  16    -0.938244757038E+02   -0.27570E-03   -0.25056E-03  4440   0.153E-02    0.944E-03
RMM:  17    -0.938247460660E+02   -0.27036E-03   -0.24024E-03  3911   0.113E-02    0.815E-03
RMM:  18    -0.938250167966E+02   -0.27073E-03   -0.23858E-03  4152   0.114E-02    0.221E-03
RMM:  19    -0.938252515186E+02   -0.23472E-03   -0.22637E-03  3210   0.888E-03    0.183E-03
RMM:  20    -0.938254768279E+02   -0.22531E-03   -0.22219E-03  2697   0.816E-03    0.165E-03
RMM:  21    -0.938256884432E+02   -0.21162E-03   -0.20925E-03  2476   0.782E-03    0.205E-03
RMM:  22    -0.938258988646E+02   -0.21042E-03   -0.20414E-03  2312   0.756E-03    0.159E-03
RMM:  23    -0.938260960330E+02   -0.19717E-03   -0.19108E-03  3028   0.800E-03    0.930E-04
RMM:  24    -0.938262848787E+02   -0.18885E-03   -0.18710E-03  2217   0.730E-03    0.111E-03
RMM:  25    -0.938264618444E+02   -0.17697E-03   -0.17551E-03  2113   0.733E-03    0.126E-03
RMM:  26    -0.938266349027E+02   -0.17306E-03   -0.17188E-03  2017   0.717E-03    0.147E-03
RMM:  27    -0.938267970570E+02   -0.16215E-03   -0.16090E-03  2028   0.723E-03    0.167E-03
RMM:  28    -0.938269551503E+02   -0.15809E-03   -0.15717E-03  1980   0.704E-03    0.193E-03
RMM:  29    -0.938271030333E+02   -0.14788E-03   -0.14680E-03  1958   0.685E-03    0.222E-03
RMM:  30    -0.938272469112E+02   -0.14388E-03   -0.14302E-03  1893   0.658E-03    0.257E-03
RMM:  31    -0.938273811479E+02   -0.13424E-03   -0.13337E-03  1884   0.658E-03    0.295E-03
RMM:  32    -0.938275113870E+02   -0.13024E-03   -0.12951E-03  1869   0.644E-03    0.338E-03
RMM:  33    -0.938276326542E+02   -0.12127E-03   -0.12055E-03  1834   0.634E-03    0.384E-03
RMM:  34    -0.938277498213E+02   -0.11717E-03   -0.11666E-03  1843   0.632E-03    0.435E-03
RMM:  35    -0.938278587479E+02   -0.10893E-03   -0.10842E-03  1830   0.636E-03    0.488E-03
RMM:  36    -0.938279637299E+02   -0.10498E-03   -0.10458E-03  1851   0.617E-03    0.545E-03
RMM:  37    -0.938280611275E+02   -0.97398E-04   -0.96973E-04  1786   0.593E-03    0.604E-03
RMM:  38    -0.938281548467E+02   -0.93719E-04   -0.93439E-04  1807   0.610E-03    0.666E-03
RMM:  39    -0.938282416267E+02   -0.86780E-04   -0.86527E-04  1777   0.589E-03    0.728E-03
RMM:  40    -0.938283249984E+02   -0.83372E-04   -0.83177E-04  1806   0.603E-03    0.793E-03
RMM:  41    -0.938284022415E+02   -0.77243E-04   -0.77066E-04  1808   0.575E-03    0.859E-03
RMM:  42    -0.938284762335E+02   -0.73992E-04   -0.73810E-04  1766   0.567E-03    0.928E-03
RMM:  43    -0.938285452863E+02   -0.69053E-04   -0.68557E-04  2123   0.584E-03    0.101E-02
RMM:  44    -0.938286109514E+02   -0.65665E-04   -0.65455E-04  1838   0.563E-03    0.108E-02
RMM:  45    -0.938286718197E+02   -0.60868E-04   -0.60766E-04  1800   0.559E-03    0.116E-02
RMM:  46    -0.938287298092E+02   -0.57989E-04   -0.58017E-04  1766   0.554E-03    0.123E-02
RMM:  47    -0.938287836491E+02   -0.53840E-04   -0.53847E-04  1823   0.559E-03    0.130E-02
RMM:  48    -0.938288350457E+02   -0.51397E-04   -0.51463E-04  1795   0.562E-03    0.138E-02
RMM:  49    -0.938288825861E+02   -0.47540E-04   -0.47687E-04  1775   0.529E-03    0.145E-02
RMM:  50    -0.938289279217E+02   -0.45336E-04   -0.45553E-04  1763   0.548E-03    0.152E-02
RMM:  51    -0.938289698054E+02   -0.41884E-04   -0.42245E-04  1778   0.537E-03    0.159E-02
RMM:  52    -0.938290097711E+02   -0.39966E-04   -0.40214E-04  1769   0.532E-03    0.166E-02
RMM:  53    -0.938290468567E+02   -0.37086E-04   -0.37425E-04  1724   0.526E-03    0.172E-02
RMM:  54    -0.938290821420E+02   -0.35285E-04   -0.35643E-04  1718   0.526E-03    0.179E-02
RMM:  55    -0.938291149719E+02   -0.32830E-04   -0.33267E-04  1766   0.530E-03    0.185E-02
RMM:  56    -0.938291459948E+02   -0.31023E-04   -0.31450E-04  1674   0.500E-03    0.192E-02
RMM:  57    -0.938291752215E+02   -0.29227E-04   -0.29520E-04  1781   0.531E-03    0.198E-02
RMM:  58    -0.938292025946E+02   -0.27373E-04   -0.27890E-04  1696   0.501E-03    0.205E-02
RMM:  59    -0.938292282791E+02   -0.25685E-04   -0.26157E-04  1689   0.505E-03    0.211E-02
RMM:  60    -0.938292524881E+02   -0.24209E-04   -0.24740E-04  1672   0.493E-03    0.217E-02
RMM:  61    -0.938292750951E+02   -0.22607E-04   -0.23114E-04  1657   0.484E-03    0.222E-02
RMM:  62    -0.938292964682E+02   -0.21373E-04   -0.21999E-04  1689   0.488E-03    0.228E-02
RMM:  63    -0.938293164334E+02   -0.19965E-04   -0.20528E-04  1647   0.474E-03    0.233E-02
RMM:  64    -0.938293354082E+02   -0.18975E-04   -0.19556E-04  1665   0.481E-03    0.239E-02
RMM:  65    -0.938293529837E+02   -0.17576E-04   -0.18200E-04  1648   0.472E-03    0.244E-02
RMM:  66    -0.938293698407E+02   -0.16857E-04   -0.17441E-04  1639   0.475E-03    0.250E-02
RMM:  67    -0.938293872603E+02   -0.17420E-04   -0.16326E-04  2064   0.501E-03    0.258E-02
RMM:  68    -0.938294017311E+02   -0.14471E-04   -0.15569E-04  1664   0.480E-03    0.262E-02
RMM:  69    -0.938294147066E+02   -0.12975E-04   -0.14655E-04  1723   0.490E-03    0.265E-02
RMM:  70    -0.938294270746E+02   -0.12368E-04   -0.13762E-04  1745   0.485E-03    0.269E-02
RMM:  71    -0.938294391654E+02   -0.12091E-04   -0.12875E-04  1715   0.480E-03    0.273E-02
RMM:  72    -0.938294505229E+02   -0.11358E-04   -0.12265E-04  1718   0.487E-03    0.277E-02
RMM:  73    -0.938294613355E+02   -0.10813E-04   -0.11511E-04  1751   0.495E-03    0.281E-02
RMM:  74    -0.938294715795E+02   -0.10244E-04   -0.10896E-04  1672   0.479E-03    0.286E-02
RMM:  75    -0.938294813176E+02   -0.97381E-05   -0.10422E-04  1697   0.497E-03    0.290E-02
RMM:  76    -0.938294903906E+02   -0.90729E-05   -0.98573E-05  1685   0.481E-03
   5 F= -.96983680E+02 E0= -.96980501E+02  d E =-.441944E+01
       N       E                     dE             d eps       ncg     rms          rms(c)
DAV:   1    -0.652176042172E+02    0.28612E+02   -0.16348E+03  6368   0.145E+02    0.359E+01
RMM:   2    -0.787746008874E+02   -0.13557E+02   -0.14438E+02  6339   0.534E+01    0.106E+02
RMM:   3    -0.797158187880E+02   -0.94122E+00   -0.39101E+01  6807   0.176E+01    0.101E+01
RMM:   4    -0.801086306324E+02   -0.39281E+00   -0.79611E+00  7111   0.840E+00    0.900E+00
RMM:   5    -0.787211969973E+02    0.13874E+01   -0.19805E+00  7840   0.414E+00    0.707E+00
RMM:   6    -0.784554291444E+02    0.26577E+00   -0.13467E+00  8112   0.271E+00    0.709E+00
RMM:   7    -0.784489631268E+02    0.64660E-02   -0.37948E-01  8766   0.163E+00    0.822E+00
RMM:   8    -0.784601399916E+02   -0.11177E-01   -0.20370E-01  8753   0.114E+00    0.109E+01
RMM:   9    -0.784726591524E+02   -0.12519E-01   -0.10603E-01  9236   0.854E-01    0.131E+01
RMM:  10    -0.784861934552E+02   -0.13534E-01   -0.71774E-02  9221   0.697E-01    0.174E+01
RMM:  11    -0.784978656532E+02   -0.11672E-01   -0.49861E-02  8864   0.582E-01    0.202E+01
RMM:  12    -0.784900074899E+02    0.78582E-02   -0.32368E-02  8093   0.496E-01    0.153E+01
RMM:  13    -0.784859978631E+02    0.40096E-02   -0.22121E-02  8005   0.413E-01    0.133E+01
RMM:  14    -0.784811540374E+02    0.48438E-02   -0.20474E-02  7661   0.374E-01    0.102E+01
RMM:  15    -0.784753287552E+02    0.58253E-02   -0.23096E-02  7606   0.386E-01    0.555E+00
RMM:  16    -0.784747758428E+02    0.55291E-03   -0.24690E-02  7465   0.359E-01    0.153E+00
RMM:  17    -0.784774201318E+02   -0.26443E-02   -0.24891E-02  7186   0.268E-01    0.749E-01
RMM:  18    -0.784779000253E+02   -0.47989E-03   -0.65002E-03  6963   0.231E-01    0.721E-01
RMM:  19    -0.784789084571E+02   -0.10084E-02   -0.10084E-02  6825   0.210E-01    0.544E-01
RMM:  20    -0.784792955850E+02   -0.38713E-03   -0.45950E-03  6609   0.192E-01    0.530E-01
RMM:  21    -0.784796982197E+02   -0.40263E-03   -0.46253E-03  6225   0.177E-01    0.508E-01
RMM:  22    -0.784800591764E+02   -0.36096E-03   -0.39921E-03  5977   0.166E-01    0.504E-01
RMM:  23    -0.784805944301E+02   -0.53525E-03   -0.35028E-03  6289   0.157E-01    0.362E-01
RMM:  24    -0.784814816956E+02   -0.88727E-03   -0.28639E-03  6728   0.160E-01    0.110E-01
RMM:  25    -0.784817199499E+02   -0.23825E-03   -0.18619E-03  6561   0.149E-01    0.118E-01
RMM:  26    -0.784820208730E+02   -0.30092E-03   -0.26121E-03  6470   0.141E-01    0.120E-01
RMM:  27    -0.784823389812E+02   -0.31811E-03   -0.31852E-03  6208   0.132E-01    0.157E-01
RMM:  28    -0.784825241941E+02   -0.18521E-03   -0.15653E-03  6414   0.126E-01    0.141E-01
RMM:  29    -0.784827219287E+02   -0.19773E-03   -0.19177E-03  6544   0.122E-01    0.143E-01
RMM:  30    -0.784828282567E+02   -0.10633E-03   -0.13962E-03  5753   0.112E-01    0.153E-01
RMM:  31    -0.784829679714E+02   -0.13971E-03   -0.15070E-03  5834   0.107E-01    0.168E-01
RMM:  32    -0.784830562758E+02   -0.88304E-04   -0.64579E-04  6116   0.105E-01    0.139E-01
RMM:  33    -0.784832006630E+02   -0.14439E-03   -0.81324E-04  6017   0.102E-01    0.116E-01
RMM:  34    -0.784832703221E+02   -0.69659E-04   -0.64229E-04  4755   0.947E-02    0.109E-01
RMM:  35    -0.784833197658E+02   -0.49444E-04   -0.62723E-04  4246   0.898E-02    0.109E-01
RMM:  36    -0.784833381409E+02   -0.18375E-04   -0.35707E-04  4207   0.864E-02    0.110E-01
RMM:  37    -0.784833689992E+02   -0.30858E-04   -0.49864E-04  4057   0.836E-02    0.118E-01
RMM:  38    -0.784833710709E+02   -0.20717E-05   -0.10515E-04  4491   0.820E-02    0.105E-01
RMM:  39    -0.784833856827E+02   -0.14612E-04   -0.29199E-04  4268   0.787E-02    0.103E-01
RMM:  40    -0.784833677591E+02    0.17924E-04    0.55948E-05  4604   0.773E-02    0.916E-02
RMM:  41    -0.784833691288E+02   -0.13697E-05   -0.13261E-04  4024   0.741E-02    0.895E-02
RMM:  42    -0.784833517365E+02    0.17392E-04    0.29363E-05  3781   0.710E-02    0.926E-02
RMM:  43    -0.784833395589E+02    0.12178E-04   -0.35591E-06  3944   0.694E-02    0.920E-02
RMM:  44    -0.784833183286E+02    0.21230E-04    0.85981E-05  3714   0.674E-02    0.946E-02
RMM:  45    -0.784833009170E+02    0.17412E-04    0.37262E-05  3589   0.653E-02    0.990E-02
RMM:  46    -0.784832734796E+02    0.27437E-04    0.14468E-04  3605   0.635E-02    0.102E-01
RMM:  47    -0.784832541513E+02    0.19328E-04    0.66151E-05  3563   0.619E-02    0.107E-01
RMM:  48    -0.784832250150E+02    0.29136E-04    0.16623E-04  3504   0.603E-02    0.111E-01
RMM:  49    -0.784832005333E+02    0.24482E-04    0.12230E-04  3461   0.585E-02    0.115E-01
RMM:  50    -0.784831696237E+02    0.30910E-04    0.18850E-04  3394   0.571E-02    0.119E-01
RMM:  51    -0.784831390864E+02    0.30537E-04    0.18452E-04  3444   0.559E-02    0.122E-01
RMM:  52    -0.784831079058E+02    0.31181E-04    0.18945E-04  3540   0.545E-02    0.128E-01
RMM:  53    -0.784830749071E+02    0.32999E-04    0.21321E-04  3293   0.530E-02    0.131E-01
RMM:  54    -0.784830374201E+02    0.37487E-04    0.25936E-04  3367   0.520E-02    0.132E-01
RMM:  55    -0.784829996928E+02    0.37727E-04    0.26559E-04  3360   0.508E-02    0.132E-01
RMM:  56    -0.784829546199E+02    0.45073E-04    0.32869E-04  3626   0.503E-02    0.128E-01
RMM:  57    -0.784829241066E+02    0.30513E-04    0.18396E-04  3385   0.489E-02    0.130E-01
RMM:  58    -0.784828683136E+02    0.55793E-04    0.46155E-04  3229   0.477E-02    0.133E-01
RMM:  59    -0.784828187628E+02    0.49551E-04    0.39318E-04  3547   0.472E-02    0.130E-01
RMM:  60    -0.784827696765E+02    0.49086E-04    0.39006E-04  3533   0.466E-02    0.127E-01
RMM:  61    -0.784827252684E+02    0.44408E-04    0.35467E-04  3373   0.454E-02    0.126E-01
RMM:  62    -0.784826876030E+02    0.37665E-04    0.28191E-04  3449   0.449E-02    0.137E-01
RMM:  63    -0.784826433971E+02    0.44206E-04    0.35594E-04  3270   0.440E-02    0.138E-01
RMM:  64    -0.784826029227E+02    0.40474E-04    0.33105E-04  3235   0.432E-02    0.141E-01
RMM:  65    -0.784825595969E+02    0.43326E-04    0.35301E-04  3278   0.425E-02    0.140E-01
RMM:  66    -0.784825106405E+02    0.48956E-04    0.41598E-04  3651   0.424E-02    0.136E-01
RMM:  67    -0.784824611616E+02    0.49479E-04    0.40252E-04  3648   0.417E-02    0.129E-01
RMM:  68    -0.784824124650E+02    0.48697E-04    0.40858E-04  3250   0.403E-02    0.128E-01
RMM:  69    -0.784823709269E+02    0.41538E-04    0.34304E-04  3068   0.397E-02    0.131E-01
RMM:  70    -0.784823200282E+02    0.50899E-04    0.44283E-04  3384   0.398E-02    0.127E-01
RMM:  71    -0.784822792298E+02    0.40798E-04    0.34482E-04  3174   0.391E-02    0.127E-01
RMM:  72    -0.784821956646E+02    0.83565E-04    0.73878E-04  5777   0.482E-02    0.776E-02
RMM:  73    -0.784821535708E+02    0.42094E-04    0.37884E-04  3739   0.391E-02    0.798E-02
RMM:  74    -0.784821003880E+02    0.53183E-04    0.49609E-04  3178   0.371E-02    0.823E-02
RMM:  75    -0.784820582733E+02    0.42115E-04    0.39589E-04  3231   0.371E-02    0.815E-02
RMM:  76    -0.784820086911E+02    0.49582E-04    0.45394E-04  3051   0.364E-02    0.817E-02
RMM:  77    -0.784819691467E+02    0.39544E-04    0.36103E-04  3024   0.360E-02    0.856E-02
RMM:  78    -0.784819238759E+02    0.45271E-04    0.41487E-04  2986   0.358E-02    0.878E-02
RMM:  79    -0.784818863117E+02    0.37564E-04    0.34562E-04  3124   0.355E-02    0.912E-02
RMM:  80    -0.784818553497E+02    0.30962E-04    0.27956E-04  3122   0.350E-02    0.945E-02
RMM:  81    -0.784818061207E+02    0.49229E-04    0.45375E-04  2906   0.342E-02    0.962E-02
RMM:  82    -0.784817481356E+02    0.57985E-04    0.49458E-04  3062   0.339E-02    0.900E-02
RMM:  83    -0.784816959162E+02    0.52219E-04    0.45015E-04  3304   0.348E-02    0.808E-02
RMM:  84    -0.784816472794E+02    0.48637E-04    0.44569E-04  3081   0.336E-02    0.779E-02
RMM:  85    -0.784816064236E+02    0.40856E-04    0.37696E-04  2915   0.329E-02    0.790E-02
RMM:  86    -0.784815604978E+02    0.45926E-04    0.42361E-04  2945   0.326E-02    0.781E-02
RMM:  87    -0.784815376864E+02    0.22811E-04    0.23669E-04  3019   0.330E-02    0.905E-02
RMM:  88    -0.784814989410E+02    0.38745E-04    0.37466E-04  2965   0.323E-02    0.939E-02
RMM:  89    -0.784814586094E+02    0.40332E-04    0.35861E-04  2910   0.320E-02    0.899E-02
RMM:  90    -0.784814177883E+02    0.40821E-04    0.36896E-04  2884   0.317E-02    0.889E-02
RMM:  91    -0.784813833436E+02    0.34445E-04    0.31748E-04  2822   0.314E-02    0.918E-02
RMM:  92    -0.784813217229E+02    0.61621E-04    0.52510E-04  3691   0.341E-02    0.737E-02
RMM:  93    -0.784812839171E+02    0.37806E-04    0.33721E-04  2987   0.318E-02    0.715E-02
RMM:  94    -0.784812416874E+02    0.42230E-04    0.39365E-04  2889   0.309E-02    0.721E-02
RMM:  95    -0.784812045393E+02    0.37148E-04    0.34206E-04  2805   0.306E-02    0.726E-02
RMM:  96    -0.784811657234E+02    0.38816E-04    0.35887E-04  2699   0.300E-02    0.730E-02
RMM:  97    -0.784811117110E+02    0.54012E-04    0.46785E-04  3510   0.322E-02    0.597E-02
RMM:  98    -0.784810749058E+02    0.36805E-04    0.34097E-04  2950   0.305E-02    0.595E-02
RMM:  99    -0.784810336166E+02    0.41289E-04    0.38265E-04  2879   0.299E-02    0.593E-02
RMM: 100    -0.784810071524E+02    0.26464E-04    0.23812E-04  2707   0.294E-02
   6 F= -.81619117E+02 E0= -.81617854E+02  d E =0.109451E+02
       N       E                     dE             d eps       ncg     rms          rms(c)
DAV:   1    -0.926315797569E+02   -0.14151E+02   -0.22765E+02  6200   0.272E+01    0.712E+00
RMM:   2    -0.941959522966E+02   -0.15644E+01   -0.28563E+01  6368   0.139E+01    0.412E+00
RMM:   3    -0.948769321568E+02   -0.68098E+00   -0.62718E+00  6738   0.597E+00    0.396E+00
RMM:   4    -0.943974285930E+02    0.47950E+00   -0.16097E+00  7546   0.387E+00    0.169E+00
RMM:   5    -0.943980579072E+02   -0.62931E-03   -0.34605E-01  7539   0.142E+00    0.872E-01
RMM:   6    -0.944030548753E+02   -0.49970E-02   -0.13541E-01  8429   0.820E-01    0.309E-01
RMM:   7    -0.944060502667E+02   -0.29954E-02   -0.43269E-02  8750   0.438E-01    0.213E-01
RMM:   8    -0.944081395827E+02   -0.20893E-02   -0.19337E-02  8741   0.252E-01    0.173E-01
RMM:   9    -0.944092964129E+02   -0.11568E-02   -0.10111E-02  7772   0.180E-01    0.918E-02
RMM:  10    -0.944100545112E+02   -0.75810E-03   -0.57827E-03  7832   0.121E-01    0.437E-02
RMM:  11    -0.944104583235E+02   -0.40381E-03   -0.39822E-03  7301   0.884E-02    0.380E-02
RMM:  12    -0.944106896461E+02   -0.23132E-03   -0.18408E-03  6965   0.630E-02    0.347E-02
RMM:  13    -0.944109523374E+02   -0.26269E-03   -0.12940E-03  6701   0.501E-02    0.161E-02
RMM:  14    -0.944110418464E+02   -0.89509E-04   -0.84185E-04  6310   0.389E-02    0.135E-02
RMM:  15    -0.944111635129E+02   -0.12167E-03   -0.55262E-04  5957   0.306E-02    0.698E-03
RMM:  16    -0.944112351008E+02   -0.71588E-04   -0.40810E-04  5512   0.239E-02    0.324E-03
RMM:  17    -0.944112789423E+02   -0.43842E-04   -0.24815E-04  5078   0.190E-02    0.245E-03
RMM:  18    -0.944113033878E+02   -0.24445E-04   -0.17774E-04  4467   0.152E-02    0.197E-03
RMM:  19    -0.944113194590E+02   -0.16071E-04   -0.12231E-04  4148   0.126E-02    0.201E-03
RMM:  20    -0.944113295968E+02   -0.10138E-04   -0.84634E-05  3863   0.105E-02    0.170E-03
RMM:  21    -0.944113364499E+02   -0.68531E-05   -0.59369E-05  3500   0.899E-03
   7 F= -.97556008E+02 E0= -.97554348E+02  d E =-.499177E+01
       N       E                     dE             d eps       ncg     rms          rms(c)
DAV:   1    -0.944684589679E+02   -0.57129E-01   -0.63400E+01  5608   0.188E+01    0.313E+00
RMM:   2    -0.945813898681E+02   -0.11293E+00   -0.30400E+00  6491   0.519E+00    0.159E+00
RMM:   3    -0.946797876926E+02   -0.98398E-01   -0.72271E-01  8489   0.267E+00    0.149E+00
RMM:   4    -0.946326951443E+02    0.47093E-01   -0.14274E-01  8333   0.100E+00    0.107E+00
RMM:   5    -0.946274126228E+02    0.52825E-02   -0.52156E-02  8615   0.499E-01    0.577E-01
RMM:   6    -0.946266042189E+02    0.80840E-03   -0.19461E-02  8604   0.289E-01    0.163E-01
RMM:   7    -0.946271230949E+02   -0.51888E-03   -0.99867E-03  8656   0.168E-01    0.142E-01
RMM:   8    -0.946274096340E+02   -0.28654E-03   -0.30272E-03  8239   0.979E-02    0.890E-02
RMM:   9    -0.946277092068E+02   -0.29957E-03   -0.21712E-03  7883   0.706E-02    0.335E-02
RMM:  10    -0.946278466769E+02   -0.13747E-03   -0.10867E-03  7555   0.510E-02    0.223E-02
RMM:  11    -0.946280327960E+02   -0.18612E-03   -0.70185E-04  7192   0.386E-02    0.732E-03
RMM:  12    -0.946281328974E+02   -0.10010E-03   -0.49118E-04  6788   0.296E-02    0.709E-03
RMM:  13    -0.946282312714E+02   -0.98374E-04   -0.26498E-04  6320   0.231E-02    0.299E-03
RMM:  14    -0.946282743668E+02   -0.43095E-04   -0.20935E-04  5717   0.180E-02    0.173E-03
RMM:  15    -0.946283075896E+02   -0.33223E-04   -0.11790E-04  5113   0.144E-02    0.112E-03
RMM:  16    -0.946283232873E+02   -0.15698E-04   -0.87113E-05  4446   0.117E-02    0.851E-04
RMM:  17    -0.946283331482E+02   -0.98610E-05   -0.56318E-05  4010   0.974E-03
   8 F= -.97772313E+02 E0= -.97770381E+02  d E =-.216305E+00
       N       E                     dE             d eps       ncg     rms          rms(c)
DAV:   1    -0.947138250907E+02   -0.85502E-01   -0.10222E+01  5752   0.771E+00    0.110E+00
RMM:   2    -0.947391801143E+02   -0.25355E-01   -0.43838E-01  6484   0.191E+00    0.620E-01
RMM:   3    -0.947438468937E+02   -0.46668E-02   -0.98333E-02  8261   0.916E-01    0.318E-01
RMM:   4    -0.947477025787E+02   -0.38557E-02   -0.22079E-02  8591   0.386E-01    0.342E-01
RMM:   5    -0.947444512941E+02    0.32513E-02   -0.44987E-03  8220   0.165E-01    0.177E-01
RMM:   6    -0.947446498001E+02   -0.19851E-03   -0.26198E-03  8146   0.103E-01    0.863E-02
RMM:   7    -0.947446319734E+02    0.17827E-04   -0.18797E-03  7330   0.705E-02    0.596E-02
RMM:   8    -0.947446530775E+02   -0.21104E-04   -0.44606E-04  7064   0.391E-02    0.440E-02
RMM:   9    -0.947446569793E+02   -0.39018E-05   -0.33648E-04  6498   0.278E-02    0.112E-02
RMM:  10    -0.947446790513E+02   -0.22072E-04   -0.13081E-04  5849   0.187E-02    0.685E-03
RMM:  11    -0.947446994511E+02   -0.20400E-04   -0.74622E-05  5214   0.136E-02    0.441E-03
RMM:  12    -0.947447193350E+02   -0.19884E-04   -0.44885E-05  4731   0.109E-02    0.222E-03
RMM:  13    -0.947447271976E+02   -0.78627E-05   -0.27608E-05  4191   0.878E-03
   9 F= -.97888761E+02 E0= -.97886966E+02  d E =-.332754E+00
       N       E                     dE             d eps       ncg     rms          rms(c)
DAV:   1    -0.947204669065E+02    0.24252E-01   -0.39511E+01  5576   0.157E+01    0.178E+00
RMM:   2    -0.948883046773E+02   -0.16784E+00   -0.18317E+00  6357   0.409E+00    0.972E-01
RMM:   3    -0.949306596261E+02   -0.42355E-01   -0.44246E-01  8507   0.217E+00    0.615E-01
RMM:   4    -0.949438547854E+02   -0.13195E-01   -0.77928E-02  8441   0.791E-01    0.761E-01
RMM:   5    -0.949359960303E+02    0.78588E-02   -0.16634E-02  8777   0.342E-01    0.433E-01
RMM:   6    -0.949364345989E+02   -0.43857E-03   -0.76575E-03  8764   0.203E-01    0.157E-01
RMM:   7    -0.949366480008E+02   -0.21340E-03   -0.33452E-03  8163   0.134E-01    0.125E-01
RMM:   8    -0.949367110873E+02   -0.63087E-04   -0.20347E-03  7956   0.884E-02    0.636E-02
RMM:   9    -0.949368084429E+02   -0.97356E-04   -0.11208E-03  7776   0.593E-02    0.536E-02
RMM:  10    -0.949368381083E+02   -0.29665E-04   -0.58417E-04  7253   0.465E-02    0.337E-02
RMM:  11    -0.949368750321E+02   -0.36924E-04   -0.39500E-04  7005   0.305E-02    0.184E-02
RMM:  12    -0.949368954029E+02   -0.20371E-04   -0.22854E-04  6448   0.229E-02    0.606E-03
RMM:  13    -0.949369100634E+02   -0.14661E-04   -0.14244E-04  5809   0.181E-02    0.321E-03
RMM:  14    -0.949369197301E+02   -0.96667E-05   -0.96880E-05  5209   0.142E-02
  10 F= -.98081416E+02 E0= -.98079552E+02  d E =-.192655E+00
       N       E                     dE             d eps       ncg     rms          rms(c)
DAV:   1    -0.948810814777E+02    0.55829E-01   -0.17766E+01  5656   0.106E+01    0.113E+00
RMM:   2    -0.949529211814E+02   -0.71840E-01   -0.78621E-01  6375   0.264E+00    0.632E-01
RMM:   3    -0.949702973345E+02   -0.17376E-01   -0.18555E-01  8497   0.138E+00    0.390E-01
RMM:   4    -0.949759462779E+02   -0.56489E-02   -0.31294E-02  8526   0.508E-01    0.462E-01
RMM:   5    -0.949727852176E+02    0.31611E-02   -0.73607E-03  8724   0.224E-01    0.263E-01
RMM:   6    -0.949729782565E+02   -0.19304E-03   -0.34069E-03  8419   0.131E-01    0.859E-02
RMM:   7    -0.949730893930E+02   -0.11114E-03   -0.14670E-03  7836   0.856E-02    0.642E-02
RMM:   8    -0.949731257441E+02   -0.36351E-04   -0.86736E-04  7525   0.559E-02    0.345E-02
RMM:   9    -0.949731706595E+02   -0.44915E-04   -0.49227E-04  7135   0.379E-02    0.297E-02
RMM:  10    -0.949731893978E+02   -0.18738E-04   -0.25649E-04  6724   0.298E-02    0.221E-02
RMM:  11    -0.949732049473E+02   -0.15549E-04   -0.17807E-04  6089   0.207E-02    0.805E-03
RMM:  12    -0.949732149772E+02   -0.10030E-04   -0.10789E-04  5639   0.157E-02    0.437E-03
RMM:  13    -0.949732213795E+02   -0.64023E-05   -0.64657E-05  4975   0.122E-02
  11 F= -.98118360E+02 E0= -.98116488E+02  d E =-.229599E+00
       N       E                     dE             d eps       ncg     rms          rms(c)
DAV:   1    -0.950230793925E+02   -0.49864E-01   -0.45125E+00  5896   0.536E+00    0.567E-01
RMM:   2    -0.950416041433E+02   -0.18525E-01   -0.20357E-01  6399   0.129E+00    0.319E-01
RMM:   3    -0.950456915800E+02   -0.40874E-02   -0.43432E-02  8363   0.665E-01    0.195E-01
RMM:   4    -0.950469857223E+02   -0.12941E-02   -0.73337E-03  8368   0.248E-01    0.206E-01
RMM:   5    -0.950463251926E+02    0.66053E-03   -0.18588E-03  8240   0.111E-01    0.116E-01
RMM:   6    -0.950463687907E+02   -0.43598E-04   -0.80339E-04  7588   0.634E-02    0.324E-02
RMM:   7    -0.950464048282E+02   -0.36037E-04   -0.35017E-04  7012   0.396E-02    0.227E-02
RMM:   8    -0.950464161958E+02   -0.11368E-04   -0.19522E-04  6386   0.256E-02    0.141E-02
RMM:   9    -0.950464262760E+02   -0.10080E-04   -0.11010E-04  5588   0.179E-02    0.120E-02
RMM:  10    -0.950464311857E+02   -0.49097E-05   -0.59636E-05  5144   0.138E-02
  12 F= -.98192052E+02 E0= -.98190173E+02  d E =-.736915E-01
       N       E                     dE             d eps       ncg     rms          rms(c)
DAV:   1    -0.949339841247E+02    0.11244E+00   -0.40779E+01  5664   0.163E+01    0.171E+00
RMM:   2    -0.951037375341E+02   -0.16975E+00   -0.18599E+00  6388   0.392E+00    0.977E-01
RMM:   3    -0.951452097760E+02   -0.41472E-01   -0.43278E-01  8412   0.217E+00    0.623E-01
RMM:   4    -0.951588000331E+02   -0.13590E-01   -0.75438E-02  8360   0.776E-01    0.835E-01
RMM:   5    -0.951493592943E+02    0.94407E-02   -0.15535E-02  8712   0.334E-01    0.469E-01
RMM:   6    -0.951495469714E+02   -0.18768E-03   -0.74753E-03  8706   0.196E-01    0.135E-01
RMM:   7    -0.951497088122E+02   -0.16184E-03   -0.29721E-03  7728   0.133E-01    0.122E-01
RMM:   8    -0.951497590867E+02   -0.50274E-04   -0.16808E-03  7946   0.806E-02    0.624E-02
RMM:   9    -0.951498440004E+02   -0.84914E-04   -0.95986E-04  7468   0.562E-02    0.619E-02
RMM:  10    -0.951498596748E+02   -0.15674E-04   -0.51041E-04  6994   0.456E-02    0.371E-02
RMM:  11    -0.951498897755E+02   -0.30101E-04   -0.31931E-04  6709   0.276E-02    0.249E-02
RMM:  12    -0.951499037819E+02   -0.14006E-04   -0.17523E-04  6132   0.206E-02    0.881E-03
RMM:  13    -0.951499142456E+02   -0.10464E-04   -0.10397E-04  5493   0.164E-02    0.292E-03
RMM:  14    -0.951499215335E+02   -0.72879E-05   -0.73236E-05  4809   0.126E-02
  13 F= -.98297434E+02 E0= -.98295506E+02  d E =-.179074E+00
       N       E                     dE             d eps       ncg     rms          rms(c)
DAV:   1    -0.951482254936E+02    0.16888E-02   -0.53692E-01  6160   0.185E+00    0.199E-01
RMM:   2    -0.951503019924E+02   -0.20765E-02   -0.22909E-02  6306   0.435E-01    0.112E-01
RMM:   3    -0.951507488968E+02   -0.44690E-03   -0.48093E-03  7946   0.220E-01    0.656E-02
RMM:   4    -0.951508728977E+02   -0.12400E-03   -0.82242E-04  7715   0.844E-02    0.606E-02
RMM:   5    -0.951508263421E+02    0.46556E-04   -0.23038E-04  6978   0.385E-02    0.377E-02
RMM:   6    -0.951508326105E+02   -0.62685E-05   -0.10527E-04  5940   0.223E-02    0.964E-03
RMM:   7    -0.951508380756E+02   -0.54650E-05   -0.53400E-05  4978   0.146E-02
  14 F= -.98298617E+02 E0= -.98296686E+02  d E =-.180257E+00
       N       E                     dE             d eps       ncg     rms          rms(c)
DAV:   1    -0.951627046567E+02   -0.11872E-01   -0.49081E-01  5792   0.178E+00    0.175E-01
RMM:   2    -0.951647317004E+02   -0.20270E-02   -0.22624E-02  6196   0.394E-01    0.970E-02
RMM:   3    -0.951650838112E+02   -0.35211E-03   -0.36512E-03  7803   0.193E-01    0.710E-02
RMM:   4    -0.951652262214E+02   -0.14241E-03   -0.73609E-04  7490   0.766E-02    0.654E-02
RMM:   5    -0.951651412936E+02    0.84928E-04   -0.17188E-04  6537   0.352E-02    0.309E-02
RMM:   6    -0.951651487909E+02   -0.74973E-05   -0.89870E-05  5391   0.205E-02
  15 F= -.98313244E+02 E0= -.98311300E+02  d E =-.146272E-01
       N       E                     dE             d eps       ncg     rms          rms(c)
DAV:   1    -0.951808422926E+02   -0.15701E-01   -0.44101E+00  5568   0.533E+00    0.518E-01
RMM:   2    -0.951990810841E+02   -0.18239E-01   -0.20348E-01  6371   0.119E+00    0.291E-01
RMM:   3    -0.952023679807E+02   -0.32869E-02   -0.34326E-02  8229   0.583E-01    0.230E-01
RMM:   4    -0.952034391389E+02   -0.10712E-02   -0.57877E-03  8198   0.224E-01    0.185E-01
RMM:   5    -0.952028353845E+02    0.60375E-03   -0.14248E-03  7880   0.980E-02    0.101E-01
RMM:   6    -0.952028280004E+02    0.73841E-05   -0.64840E-04  7315   0.558E-02    0.296E-02
RMM:   7    -0.952028634690E+02   -0.35469E-04   -0.29420E-04  6341   0.328E-02    0.143E-02
RMM:   8    -0.952028798521E+02   -0.16383E-04   -0.14278E-04  5634   0.217E-02    0.101E-02
RMM:   9    -0.952028867928E+02   -0.69407E-05   -0.75022E-05  5025   0.146E-02
  16 F= -.98351954E+02 E0= -.98349972E+02  d E =-.533368E-01
       N       E                     dE             d eps       ncg     rms          rms(c)
DAV:   1    -0.951640070920E+02    0.38873E-01   -0.17660E+01  5456   0.107E+01    0.105E+00
RMM:   2    -0.952380477145E+02   -0.74041E-01   -0.82454E-01  6392   0.242E+00    0.591E-01
RMM:   3    -0.952517056474E+02   -0.13658E-01   -0.14632E-01  8403   0.121E+00    0.471E-01
RMM:   4    -0.952532755838E+02   -0.15699E-02   -0.23686E-02  8498   0.455E-01    0.259E-01
RMM:   5    -0.952553466397E+02   -0.20711E-02   -0.59007E-03  8431   0.192E-01    0.259E-01
RMM:   6    -0.952537679882E+02    0.15787E-02   -0.23527E-03  7817   0.108E-01    0.696E-02
RMM:   7    -0.952538795500E+02   -0.11156E-03   -0.11942E-03  7723   0.646E-02    0.473E-02
RMM:   8    -0.952539583534E+02   -0.78803E-04   -0.58237E-04  6862   0.404E-02    0.319E-02
RMM:   9    -0.952539827198E+02   -0.24366E-04   -0.29483E-04  6268   0.275E-02    0.129E-02
RMM:  10    -0.952540024658E+02   -0.19746E-04   -0.18360E-04  5894   0.201E-02    0.112E-02
RMM:  11    -0.952540126146E+02   -0.10149E-04   -0.10380E-04  5090   0.144E-02    0.124E-02
RMM:  12    -0.952540192586E+02   -0.66440E-05   -0.68642E-05  4585   0.110E-02
  17 F= -.98405161E+02 E0= -.98403132E+02  d E =-.106544E+00
       N       E                     dE             d eps       ncg     rms          rms(c)
DAV:   1    -0.948586818262E+02    0.39533E+00   -0.71044E+01  5440   0.216E+01    0.239E+00
RMM:   2    -0.951758290857E+02   -0.31715E+00   -0.35133E+00  6431   0.505E+00    0.120E+00
RMM:   3    -0.952438764806E+02   -0.68047E-01   -0.71749E-01  8458   0.266E+00    0.112E+00
RMM:   4    -0.952582664321E+02   -0.14390E-01   -0.96626E-02  8328   0.917E-01    0.117E+00
RMM:   5    -0.952482137362E+02    0.10053E-01   -0.24582E-02  8750   0.399E-01    0.646E-01
RMM:   6    -0.952487788764E+02   -0.56514E-03   -0.11073E-02  8610   0.224E-01    0.246E-01
RMM:   7    -0.952496753357E+02   -0.89646E-03   -0.64700E-03  7509   0.177E-01    0.192E-01
RMM:   8    -0.952496771280E+02   -0.17924E-05   -0.24043E-03  8136   0.960E-02    0.122E-01
RMM:   9    -0.952498629660E+02   -0.18584E-03   -0.22878E-03  7507   0.784E-02    0.131E-01
RMM:  10    -0.952498353869E+02    0.27579E-04   -0.95551E-04  7000   0.540E-02    0.255E-02
RMM:  11    -0.952499087749E+02   -0.73388E-04   -0.61976E-04  6701   0.375E-02    0.545E-02
RMM:  12    -0.952499237415E+02   -0.14967E-04   -0.34353E-04  6322   0.287E-02    0.124E-02
RMM:  13    -0.952499441044E+02   -0.20363E-04   -0.17237E-04  5655   0.181E-02    0.603E-03
RMM:  14    -0.952499619304E+02   -0.17826E-04   -0.11653E-04  5113   0.141E-02    0.389E-03
RMM:  15    -0.952499687325E+02   -0.68020E-05   -0.72520E-05  4211   0.109E-02
  18 F= -.98406134E+02 E0= -.98404073E+02  d E =-.107517E+00
       N       E                     dE             d eps       ncg     rms          rms(c)
DAV:   1    -0.951775446917E+02    0.72417E-01   -0.18282E+01  5456   0.112E+01    0.144E+00
RMM:   2    -0.952535759307E+02   -0.76031E-01   -0.87030E-01  6353   0.255E+00    0.661E-01
RMM:   3    -0.952697823042E+02   -0.16206E-01   -0.15641E-01  8470   0.127E+00    0.444E-01
RMM:   4    -0.952743201371E+02   -0.45378E-02   -0.28239E-02  8324   0.485E-01    0.507E-01
RMM:   5    -0.952701097531E+02    0.42104E-02   -0.59337E-03  8420   0.210E-01    0.194E-01
RMM:   6    -0.952704081578E+02   -0.29840E-03   -0.27729E-03  8279   0.118E-01    0.733E-02
RMM:   7    -0.952705049585E+02   -0.96801E-04   -0.10400E-03  7722   0.689E-02    0.376E-02
RMM:   8    -0.952705548775E+02   -0.49919E-04   -0.55045E-04  7186   0.429E-02    0.230E-02
RMM:   9    -0.952705812151E+02   -0.26338E-04   -0.27814E-04  6472   0.293E-02    0.135E-02
RMM:  10    -0.952705975171E+02   -0.16302E-04   -0.16182E-04  5833   0.206E-02    0.564E-03
RMM:  11    -0.952706083810E+02   -0.10864E-04   -0.91699E-05  5356   0.155E-02    0.477E-03
RMM:  12    -0.952706147836E+02   -0.64026E-05   -0.56601E-05  4901   0.117E-02
  19 F= -.98424064E+02 E0= -.98422022E+02  d E =-.125447E+00
       N       E                     dE             d eps       ncg     rms          rms(c)
DAV:   1    -0.952826706561E+02   -0.12062E-01   -0.73549E-01  5784   0.215E+00    0.208E-01
RMM:   2    -0.952852112114E+02   -0.25406E-02   -0.28753E-02  6054   0.465E-01    0.112E-01
RMM:   3    -0.952856962855E+02   -0.48507E-03   -0.51968E-03  7830   0.232E-01    0.791E-02
RMM:   4    -0.952857868484E+02   -0.90563E-04   -0.79020E-04  7438   0.856E-02    0.543E-02
RMM:   5    -0.952857661838E+02    0.20665E-04   -0.18552E-04  6599   0.382E-02    0.383E-02
RMM:   6    -0.952857566701E+02    0.95137E-05   -0.73357E-05  5492   0.204E-02
  20 F= -.98439569E+02 E0= -.98437495E+02  d E =-.155051E-01
       N       E                     dE             d eps       ncg     rms          rms(c)
DAV:   1    -0.952918266872E+02   -0.60605E-02   -0.66204E+00  5464   0.648E+00    0.622E-01
RMM:   2    -0.953149850026E+02   -0.23158E-01   -0.26018E-01  6230   0.141E+00    0.335E-01
RMM:   3    -0.953191871153E+02   -0.42021E-02   -0.46676E-02  8278   0.703E-01    0.248E-01
RMM:   4    -0.953196140991E+02   -0.42698E-03   -0.74804E-03  8148   0.261E-01    0.130E-01
RMM:   5    -0.953199556957E+02   -0.34160E-03   -0.21376E-03  8205   0.112E-01    0.793E-02
RMM:   6    -0.953199022936E+02    0.53402E-04   -0.65076E-04  7226   0.550E-02    0.538E-02
RMM:   7    -0.953199172056E+02   -0.14912E-04   -0.31360E-04  6520   0.343E-02    0.326E-02
RMM:   8    -0.953199427958E+02   -0.25590E-04   -0.15595E-04  5893   0.225E-02    0.135E-02
RMM:   9    -0.953199529953E+02   -0.10200E-04   -0.91423E-05  5261   0.161E-02    0.797E-03
RMM:  10    -0.953199610672E+02   -0.80718E-05   -0.47293E-05  4701   0.116E-02
  21 F= -.98474929E+02 E0= -.98472745E+02  d E =-.508650E-01
       N       E                     dE             d eps       ncg     rms          rms(c)
DAV:   1    -0.952231537016E+02    0.96799E-01   -0.26438E+01  5440   0.131E+01    0.131E+00
RMM:   2    -0.953186750497E+02   -0.95521E-01   -0.10704E+00  6237   0.290E+00    0.676E-01
RMM:   3    -0.953371169392E+02   -0.18442E-01   -0.20286E-01  8323   0.149E+00    0.524E-01
RMM:   4    -0.953421151460E+02   -0.49982E-02   -0.34683E-02  8389   0.550E-01    0.497E-01
RMM:   5    -0.953395660359E+02    0.25491E-02   -0.71489E-03  8640   0.216E-01    0.294E-01
RMM:   6    -0.953397563197E+02   -0.19028E-03   -0.28440E-03  8184   0.118E-01    0.122E-01
RMM:   7    -0.953400080140E+02   -0.25169E-03   -0.16177E-03  7428   0.867E-02    0.632E-02
RMM:   8    -0.953400543180E+02   -0.46304E-04   -0.65856E-04  7473   0.501E-02    0.462E-02
RMM:   9    -0.953401017905E+02   -0.47473E-04   -0.45263E-04  6490   0.363E-02    0.362E-02
RMM:  10    -0.953401254329E+02   -0.23642E-04   -0.19707E-04  5925   0.236E-02    0.936E-03
RMM:  11    -0.953401465292E+02   -0.21096E-04   -0.13392E-04  5612   0.177E-02    0.118E-02
RMM:  12    -0.953401599641E+02   -0.13435E-04   -0.73533E-05  5155   0.132E-02    0.401E-03
RMM:  13    -0.953401724400E+02   -0.12476E-04   -0.48264E-05  4628   0.102E-02    0.384E-03
RMM:  14    -0.953401811397E+02   -0.86997E-05   -0.31203E-05  4126   0.854E-03
  22 F= -.98497790E+02 E0= -.98495387E+02  d E =-.737257E-01
       N       E                     dE             d eps       ncg     rms          rms(c)
DAV:   1    -0.953487573583E+02   -0.85849E-02   -0.52017E+00  5688   0.577E+00    0.540E-01
RMM:   2    -0.953631141786E+02   -0.14357E-01   -0.16445E-01  6075   0.121E+00    0.260E-01
RMM:   3    -0.953661917694E+02   -0.30776E-02   -0.34837E-02  8179   0.625E-01    0.189E-01
RMM:   4    -0.953668569946E+02   -0.66523E-03   -0.53904E-03  8043   0.225E-01    0.159E-01
RMM:   5    -0.953666505022E+02    0.20649E-03   -0.12958E-03  8133   0.904E-02    0.123E-01
RMM:   6    -0.953666712953E+02   -0.20793E-04   -0.42911E-04  6955   0.468E-02    0.540E-02
RMM:   7    -0.953667152749E+02   -0.43980E-04   -0.28944E-04  6239   0.354E-02    0.256E-02
RMM:   8    -0.953667223062E+02   -0.70313E-05   -0.10497E-04  5611   0.206E-02    0.147E-02
RMM:   9    -0.953667302099E+02   -0.79037E-05   -0.65339E-05  4902   0.143E-02
  23 F= -.98525178E+02 E0= -.98522636E+02  d E =-.273883E-01
       N       E                     dE             d eps       ncg     rms          rms(c)
DAV:   1    -0.953158247057E+02    0.50898E-01   -0.21347E+01  5440   0.117E+01    0.118E+00
RMM:   2    -0.953765805007E+02   -0.60756E-01   -0.69635E-01  6144   0.251E+00    0.531E-01
RMM:   3    -0.953906854522E+02   -0.14105E-01   -0.15589E-01  8252   0.133E+00    0.456E-01
RMM:   4    -0.953940501999E+02   -0.33647E-02   -0.23574E-02  8326   0.463E-01    0.449E-01
RMM:   5    -0.953920292195E+02    0.20210E-02   -0.42506E-03  8590   0.176E-01    0.296E-01
RMM:   6    -0.953921630897E+02   -0.13387E-03   -0.25382E-03  7780   0.109E-01    0.914E-02
RMM:   7    -0.953923349376E+02   -0.17185E-03   -0.11606E-03  7135   0.756E-02    0.792E-02
RMM:   8    -0.953923410768E+02   -0.61392E-05   -0.51860E-04  7094   0.449E-02    0.353E-02
RMM:   9    -0.953923689315E+02   -0.27855E-04   -0.24156E-04  6141   0.285E-02    0.269E-02
RMM:  10    -0.953924107689E+02   -0.41837E-04   -0.13140E-04  5712   0.203E-02    0.105E-02
RMM:  11    -0.953924367591E+02   -0.25990E-04   -0.84886E-05  5156   0.152E-02    0.599E-03
RMM:  12    -0.953924513367E+02   -0.14578E-04   -0.43864E-05  4589   0.106E-02    0.442E-03
RMM:  13    -0.953924637207E+02   -0.12384E-04   -0.30382E-05  4213   0.843E-03    0.246E-03
RMM:  14    -0.953924837781E+02   -0.20057E-04   -0.23220E-05  4124   0.750E-03    0.261E-03
RMM:  15    -0.953924862756E+02   -0.24974E-05   -0.10395E-05  3083   0.556E-03
  24 F= -.98552871E+02 E0= -.98550029E+02  d E =-.550813E-01
       N       E                     dE             d eps       ncg     rms          rms(c)
DAV:   1    -0.953882878461E+02    0.41959E-02   -0.14041E+00  6000   0.301E+00    0.285E-01
RMM:   2    -0.953921344072E+02   -0.38466E-02   -0.44359E-02  6096   0.632E-01    0.135E-01
RMM:   3    -0.953929879459E+02   -0.85354E-03   -0.91891E-03  8059   0.323E-01    0.926E-02
RMM:   4    -0.953931653234E+02   -0.17738E-03   -0.14519E-03  7829   0.118E-01    0.738E-02
RMM:   5    -0.953931273665E+02    0.37957E-04   -0.36662E-04  7325   0.483E-02    0.605E-02
RMM:   6    -0.953931290160E+02   -0.16495E-05   -0.12435E-04  5950   0.257E-02    0.265E-02
RMM:   7    -0.953931418282E+02   -0.12812E-04   -0.75522E-05  5277   0.184E-02    0.112E-02
RMM:   8    -0.953931448372E+02   -0.30090E-05   -0.32682E-05  4389   0.120E-02
  25 F= -.98554079E+02 E0= -.98551168E+02  d E =-.562898E-01
       N       E                     dE             d eps       ncg     rms          rms(c)
DAV:   1    -0.954085006296E+02   -0.15359E-01   -0.70233E-01  5856   0.217E+00    0.247E-01
RMM:   2    -0.954099981088E+02   -0.14975E-02   -0.18093E-02  6110   0.456E-01    0.126E-01
RMM:   3    -0.954104555864E+02   -0.45748E-03   -0.46140E-03  7977   0.240E-01    0.717E-02
RMM:   4    -0.954105731161E+02   -0.11753E-03   -0.81651E-04  7945   0.876E-02    0.679E-02
RMM:   5    -0.954104988429E+02    0.74273E-04   -0.15697E-04  7166   0.368E-02    0.424E-02
RMM:   6    -0.954105070583E+02   -0.82154E-05   -0.84880E-05  5910   0.228E-02
  26 F= -.98570896E+02 E0= -.98567859E+02  d E =-.168172E-01
       N       E                     dE             d eps       ncg     rms          rms(c)
DAV:   1    -0.954321947078E+02   -0.21696E-01   -0.63075E+00  5456   0.651E+00    0.750E-01
RMM:   2    -0.954462663805E+02   -0.14072E-01   -0.16712E-01  6282   0.140E+00    0.377E-01
RMM:   3    -0.954503647334E+02   -0.40984E-02   -0.43912E-02  8258   0.741E-01    0.219E-01
RMM:   4    -0.954515716589E+02   -0.12069E-02   -0.74250E-03  8386   0.263E-01    0.211E-01
RMM:   5    -0.954508495484E+02    0.72211E-03   -0.13035E-03  8446   0.109E-01    0.136E-01
RMM:   6    -0.954509000628E+02   -0.50514E-04   -0.69284E-04  7667   0.655E-02    0.409E-02
RMM:   7    -0.954509221605E+02   -0.22098E-04   -0.28888E-04  6891   0.413E-02    0.213E-02
RMM:   8    -0.954509363400E+02   -0.14179E-04   -0.13810E-04  6305   0.248E-02    0.105E-02
RMM:   9    -0.954509504822E+02   -0.14142E-04   -0.70453E-05  5612   0.167E-02    0.550E-03
RMM:  10    -0.954509593407E+02   -0.88585E-05   -0.38397E-05  4959   0.117E-02
  27 F= -.98609791E+02 E0= -.98606366E+02  d E =-.557115E-01
       N       E                     dE             d eps       ncg     rms          rms(c)
DAV:   1    -0.953992193768E+02    0.51731E-01   -0.25172E+01  5448   0.130E+01    0.157E+00
RMM:   2    -0.954593003173E+02   -0.60081E-01   -0.70329E-01  6190   0.287E+00    0.755E-01
RMM:   3    -0.954764812320E+02   -0.17181E-01   -0.19453E-01  8368   0.157E+00    0.460E-01
RMM:   4    -0.954815821010E+02   -0.51009E-02   -0.31926E-02  8453   0.548E-01    0.445E-01
RMM:   5    -0.954789665934E+02    0.26155E-02   -0.51248E-03  8771   0.219E-01    0.316E-01
RMM:   6    -0.954790029752E+02   -0.36382E-04   -0.24880E-03  8435   0.129E-01    0.929E-02
RMM:   7    -0.954791201755E+02   -0.11720E-03   -0.12539E-03  7668   0.876E-02    0.745E-02
RMM:   8    -0.954791466466E+02   -0.26471E-04   -0.53252E-04  7708   0.515E-02    0.230E-02
RMM:   9    -0.954792047919E+02   -0.58145E-04   -0.28507E-04  6907   0.324E-02    0.136E-02
RMM:  10    -0.954792346294E+02   -0.29838E-04   -0.13613E-04  6383   0.226E-02    0.721E-03
RMM:  11    -0.954792722459E+02   -0.37616E-04   -0.95101E-05  5800   0.168E-02    0.808E-03
RMM:  12    -0.954792959151E+02   -0.23669E-04   -0.59627E-05  5310   0.134E-02    0.250E-03
RMM:  13    -0.954793042259E+02   -0.83107E-05   -0.33418E-05  4621   0.967E-03
  28 F= -.98635369E+02 E0= -.98631074E+02  d E =-.812900E-01
       N       E                     dE             d eps       ncg     rms          rms(c)
DAV:   1    -0.954889728059E+02   -0.96769E-02   -0.48108E-01  6096   0.172E+00    0.185E-01
RMM:   2    -0.954900265922E+02   -0.10538E-02   -0.12502E-02  6134   0.343E-01    0.965E-02
RMM:   3    -0.954902377494E+02   -0.21116E-03   -0.26338E-03  7957   0.176E-01    0.519E-02
RMM:   4    -0.954902752142E+02   -0.37465E-04   -0.50009E-04  7520   0.656E-02    0.320E-02
RMM:   5    -0.954903097974E+02   -0.34583E-04   -0.11966E-04  6596   0.302E-02    0.281E-02
RMM:   6    -0.954902934516E+02    0.16346E-04   -0.52206E-05  5123   0.165E-02    0.830E-03
RMM:   7    -0.954902986722E+02   -0.52206E-05   -0.25395E-05  4180   0.118E-02
  29 F= -.98645933E+02 E0= -.98641518E+02  d E =-.105635E-01
       N       E                     dE             d eps       ncg     rms          rms(c)
DAV:   1    -0.955013487806E+02   -0.11055E-01   -0.43188E+00  5456   0.515E+00    0.582E-01
RMM:   2    -0.955110670087E+02   -0.97182E-02   -0.11446E-01  6242   0.105E+00    0.290E-01
RMM:   3    -0.955130504387E+02   -0.19834E-02   -0.25154E-02  8281   0.539E-01    0.178E-01
RMM:   4    -0.955133493516E+02   -0.29891E-03   -0.40001E-03  8287   0.192E-01    0.109E-01
RMM:   5    -0.955135453697E+02   -0.19602E-03   -0.85450E-04  8236   0.788E-02    0.623E-02
RMM:   6    -0.955134790867E+02    0.66283E-04   -0.35557E-04  7239   0.417E-02    0.245E-02
RMM:   7    -0.955134943598E+02   -0.15273E-04   -0.12624E-04  6417   0.260E-02    0.104E-02
RMM:   8    -0.955135155286E+02   -0.21169E-04   -0.75770E-05  5696   0.170E-02    0.730E-03
RMM:   9    -0.955135278939E+02   -0.12365E-04   -0.40879E-05  4775   0.118E-02    0.396E-03
RMM:  10    -0.955135408913E+02   -0.12997E-04   -0.23222E-05  4312   0.926E-03    0.246E-03
RMM:  11    -0.955135519377E+02   -0.11046E-04   -0.16326E-05  3796   0.754E-03    0.155E-03
RMM:  12    -0.955135568169E+02   -0.48792E-05   -0.84042E-06  3205   0.606E-03
  30 F= -.98667904E+02 E0= -.98663122E+02  d E =-.325349E-01
       N       E                     dE             d eps       ncg     rms          rms(c)
DAV:   1    -0.954669615794E+02    0.46590E-01   -0.17150E+01  5440   0.103E+01    0.127E+00
RMM:   2    -0.955080247529E+02   -0.41063E-01   -0.47807E-01  6248   0.213E+00    0.578E-01
RMM:   3    -0.955165624185E+02   -0.85377E-02   -0.10641E-01  8397   0.112E+00    0.412E-01
RMM:   4    -0.955181873533E+02   -0.16249E-02   -0.17173E-02  8530   0.396E-01    0.286E-01
RMM:   5    -0.955189704288E+02   -0.78308E-03   -0.30828E-03  8757   0.158E-01    0.249E-01
RMM:   6    -0.955180282371E+02    0.94219E-03   -0.15865E-03  8095   0.931E-02    0.517E-02
RMM:   7    -0.955181321606E+02   -0.10392E-03   -0.66229E-04  7509   0.603E-02    0.327E-02
RMM:   8    -0.955181729245E+02   -0.40764E-04   -0.29315E-04  7173   0.368E-02    0.192E-02
RMM:   9    -0.955182110341E+02   -0.38110E-04   -0.16204E-04  6423   0.242E-02    0.170E-02
RMM:  10    -0.955182620169E+02   -0.50983E-04   -0.92068E-05  5870   0.184E-02    0.981E-03
RMM:  11    -0.955182889020E+02   -0.26885E-04   -0.60580E-05  5229   0.133E-02    0.662E-03
RMM:  12    -0.955183130704E+02   -0.24168E-04   -0.35890E-05  4753   0.100E-02    0.235E-03
RMM:  13    -0.955183256983E+02   -0.12628E-04   -0.21805E-05  4128   0.809E-03    0.230E-03
RMM:  14    -0.955183374449E+02   -0.11747E-04   -0.15417E-05  3591   0.665E-03    0.117E-03
RMM:  15    -0.955183501658E+02   -0.12721E-04   -0.15176E-05  3264   0.591E-03    0.763E-04
RMM:  16    -0.955183535038E+02   -0.33380E-05   -0.68381E-06  2589   0.499E-03
  31 F= -.98670434E+02 E0= -.98664913E+02  d E =-.350647E-01
       N       E                     dE             d eps       ncg     rms          rms(c)
DAV:   1    -0.955135850852E+02    0.47651E-02   -0.34556E+00  5584   0.460E+00    0.471E-01
RMM:   2    -0.955210362479E+02   -0.74512E-02   -0.87673E-02  6208   0.909E-01    0.254E-01
RMM:   3    -0.955225827447E+02   -0.15465E-02   -0.18801E-02  8176   0.465E-01    0.134E-01
RMM:   4    -0.955229304324E+02   -0.34769E-03   -0.29692E-03  8123   0.165E-01    0.105E-01
RMM:   5    -0.955228714178E+02    0.59015E-04   -0.65433E-04  8127   0.680E-02    0.753E-02
RMM:   6    -0.955228689218E+02    0.24960E-05   -0.21275E-04  6931   0.367E-02    0.196E-02
RMM:   7    -0.955228826007E+02   -0.13679E-04   -0.10945E-04  6155   0.225E-02    0.107E-02
RMM:   8    -0.955228884342E+02   -0.58335E-05   -0.48451E-05  4979   0.144E-02
  32 F= -.98675948E+02 E0= -.98670756E+02  d E =-.405782E-01
       N       E                     dE             d eps       ncg     rms          rms(c)
DAV:   1    -0.955340910409E+02   -0.11208E-01   -0.55606E-01  5728   0.151E+00    0.181E-01
RMM:   2    -0.955348453510E+02   -0.75431E-03   -0.11187E-02  5890   0.256E-01    0.874E-02
RMM:   3    -0.955349833116E+02   -0.13796E-03   -0.21477E-03  7679   0.129E-01    0.701E-02
RMM:   4    -0.955350668670E+02   -0.83555E-04   -0.32574E-04  6546   0.483E-02    0.687E-02
RMM:   5    -0.955349980212E+02    0.68846E-04   -0.67049E-05  5221   0.223E-02    0.328E-02
RMM:   6    -0.955350068205E+02   -0.87993E-05   -0.62806E-05  4577   0.158E-02
  33 F= -.98687588E+02 E0= -.98682320E+02  d E =-.116402E-01
       N       E                     dE             d eps       ncg     rms          rms(c)
DAV:   1    -0.955524375285E+02   -0.17440E-01   -0.49679E+00  5456   0.453E+00    0.596E-01
[...]
RMM:   3    -0.960749574852E+02   -0.59697E-02   -0.40063E-02  7658   0.603E-01    0.341E-01
RMM:   4    -0.960730983798E+02    0.18591E-02   -0.39229E-03  7664   0.183E-01    0.244E-01
RMM:   5    -0.960731140821E+02   -0.15702E-04   -0.71735E-04  7891   0.745E-02    0.167E-01
RMM:   6    -0.960733295268E+02   -0.21544E-03   -0.13624E-03  6147   0.552E-02    0.952E-02
RMM:   7    -0.960732949513E+02    0.34575E-04   -0.10845E-04  5193   0.247E-02    0.572E-02
RMM:   8    -0.960732882234E+02    0.67280E-05   -0.19832E-04  4873   0.196E-02    0.104E-02
RMM:   9    -0.960732885324E+02   -0.30906E-06   -0.26118E-05  4018   0.104E-02
  77 F= -.99120072E+02 E0= -.99114893E+02  d E =-.541207E-02
       N       E                     dE             d eps       ncg     rms          rms(c)
DAV:   1    -0.960732157857E+02    0.72438E-04   -0.81165E-02  6368   0.611E-01    0.757E-02
RMM:   2    -0.960733834609E+02   -0.16768E-03   -0.18305E-03  5655   0.122E-01    0.322E-02
RMM:   3    -0.960734600328E+02   -0.76572E-04   -0.47654E-04  6819   0.676E-02    0.337E-02
RMM:   4    -0.960734398003E+02    0.20233E-04   -0.73035E-05  4754   0.252E-02    0.228E-02
RMM:   5    -0.960734408796E+02   -0.10793E-05   -0.15979E-05  3517   0.120E-02
  78 F= -.99120145E+02 E0= -.99114972E+02  d E =-.548475E-02
       N       E                     dE             d eps       ncg     rms          rms(c)
DAV:   1    -0.960709399064E+02    0.24999E-02   -0.22052E+00  5744   0.331E+00    0.411E-01
RMM:   2    -0.960759971968E+02   -0.50573E-02   -0.53834E-02  5935   0.678E-01    0.179E-01
RMM:   3    -0.960785517842E+02   -0.25546E-02   -0.13943E-02  7874   0.371E-01    0.236E-01
RMM:   4    -0.960773890531E+02    0.11627E-02   -0.15546E-03  7810   0.120E-01    0.140E-01
RMM:   5    -0.960774178292E+02   -0.28776E-04   -0.33501E-04  7497   0.488E-02    0.944E-02
RMM:   6    -0.960774679279E+02   -0.50099E-04   -0.28279E-04  5766   0.326E-02    0.353E-02
RMM:   7    -0.960774703060E+02   -0.23780E-05   -0.50992E-05  4823   0.179E-02
  79 F= -.99124068E+02 E0= -.99118896E+02  d E =-.392293E-02
       N       E                     dE             d eps       ncg     rms          rms(c)
DAV:   1    -0.960761262602E+02    0.13417E-02   -0.77258E-01  5888   0.195E+00    0.233E-01
RMM:   2    -0.960779153551E+02   -0.17891E-02   -0.18948E-02  5908   0.402E-01    0.104E-01
RMM:   3    -0.960787883774E+02   -0.87302E-03   -0.48696E-03  7862   0.221E-01    0.135E-01
RMM:   4    -0.960784234556E+02    0.36492E-03   -0.55777E-04  7578   0.715E-02    0.812E-02
RMM:   5    -0.960784320595E+02   -0.86040E-05   -0.12969E-04  6255   0.294E-02    0.556E-02
RMM:   6    -0.960784535617E+02   -0.21502E-04   -0.10598E-04  5026   0.210E-02    0.207E-02
RMM:   7    -0.960784557571E+02   -0.21954E-05   -0.26260E-05  4107   0.122E-02
  80 F= -.99124986E+02 E0= -.99119821E+02  d E =-.484160E-02
       N       E                     dE             d eps       ncg     rms          rms(c)
DAV:   1    -0.960782937417E+02    0.15982E-03   -0.85899E-02  6360   0.650E-01    0.761E-02
RMM:   2    -0.960784922368E+02   -0.19850E-03   -0.21121E-03  5763   0.134E-01    0.346E-02
RMM:   3    -0.960785864118E+02   -0.94175E-04   -0.54470E-04  7366   0.731E-02    0.438E-02
RMM:   4    -0.960785508661E+02    0.35546E-04   -0.70560E-05  5389   0.256E-02    0.264E-02
RMM:   5    -0.960785530024E+02   -0.21363E-05   -0.20750E-05  3738   0.133E-02
  81 F= -.99125061E+02 E0= -.99119903E+02  d E =-.491586E-02
       N       E                     dE             d eps       ncg     rms          rms(c)
DAV:   1    -0.960770354359E+02    0.15154E-02   -0.12611E+00  5680   0.266E+00    0.316E-01
RMM:   2    -0.960804108748E+02   -0.33754E-02   -0.36205E-02  6100   0.573E-01    0.159E-01
RMM:   3    -0.960819823400E+02   -0.15715E-02   -0.86726E-03  8094   0.310E-01    0.183E-01
RMM:   4    -0.960812666098E+02    0.71573E-03   -0.11802E-03  7878   0.106E-01    0.945E-02
RMM:   5    -0.960812845957E+02   -0.17986E-04   -0.25033E-04  7337   0.442E-02    0.600E-02
RMM:   6    -0.960813092588E+02   -0.24663E-04   -0.13264E-04  6016   0.272E-02    0.165E-02
RMM:   7    -0.960813143336E+02   -0.50748E-05   -0.55616E-05  4900   0.167E-02
  82 F= -.99127928E+02 E0= -.99122770E+02  d E =-.286678E-02
       N       E                     dE             d eps       ncg     rms          rms(c)
DAV:   1    -0.960808508747E+02    0.45838E-03   -0.25901E-01  5920   0.120E+00    0.137E-01
RMM:   2    -0.960815598366E+02   -0.70896E-03   -0.75624E-03  6043   0.259E-01    0.707E-02
RMM:   3    -0.960818564553E+02   -0.29662E-03   -0.17624E-03  7871   0.138E-01    0.790E-02
RMM:   4    -0.960817357746E+02    0.12068E-03   -0.25858E-04  7167   0.488E-02    0.433E-02
RMM:   5    -0.960817424863E+02   -0.67117E-05   -0.68935E-05  5664   0.232E-02
  83 F= -.99128402E+02 E0= -.99123259E+02  d E =-.334172E-02
       N       E                     dE             d eps       ncg     rms          rms(c)
DAV:   1    -0.960814869867E+02    0.24879E-03   -0.46297E-01  5520   0.166E+00    0.187E-01
RMM:   2    -0.960828279100E+02   -0.13409E-02   -0.14942E-02  6108   0.360E-01    0.955E-02
RMM:   3    -0.960832069410E+02   -0.37903E-03   -0.31543E-03  7914   0.187E-01    0.758E-02
RMM:   4    -0.960832011324E+02    0.58086E-05   -0.52310E-04  7645   0.683E-02    0.645E-02
RMM:   5    -0.960831702325E+02    0.30900E-04   -0.12295E-04  6404   0.306E-02    0.348E-02
RMM:   6    -0.960831818633E+02   -0.11631E-04   -0.65325E-05  5188   0.191E-02    0.106E-02
RMM:   7    -0.960831861753E+02   -0.43120E-05   -0.28100E-05  4103   0.120E-02
  84 F= -.99130023E+02 E0= -.99124884E+02  d E =-.162032E-02
       N       E                     dE             d eps       ncg     rms          rms(c)
DAV:   1    -0.960830626612E+02    0.11920E-03   -0.74354E-02  5960   0.663E-01    0.709E-02
RMM:   2    -0.960832819035E+02   -0.21924E-03   -0.24462E-03  6063   0.144E-01    0.373E-02
RMM:   3    -0.960833400116E+02   -0.58108E-04   -0.50167E-04  7536   0.741E-02    0.295E-02
RMM:   4    -0.960833433790E+02   -0.33674E-05   -0.93521E-05  6105   0.288E-02
  85 F= -.99130251E+02 E0= -.99125090E+02  d E =-.184804E-02
       N       E                     dE             d eps       ncg     rms          rms(c)
DAV:   1    -0.960836788350E+02   -0.33882E-03   -0.21457E-01  5520   0.113E+00    0.115E-01
RMM:   2    -0.960842444263E+02   -0.56559E-03   -0.62733E-03  6000   0.244E-01    0.596E-02
RMM:   3    -0.960844013547E+02   -0.15693E-03   -0.14748E-03  7717   0.129E-01    0.448E-02
RMM:   4    -0.960844324525E+02   -0.31098E-04   -0.22691E-04  7089   0.461E-02    0.461E-02
RMM:   5    -0.960844101376E+02    0.22315E-04   -0.57023E-05  5557   0.226E-02    0.272E-02
RMM:   6    -0.960844175683E+02   -0.74306E-05   -0.35776E-05  4224   0.144E-02
  86 F= -.99131448E+02 E0= -.99126323E+02  d E =-.119737E-02
       N       E                     dE             d eps       ncg     rms          rms(c)
DAV:   1    -0.960796615690E+02    0.47486E-02   -0.19271E+00  5440   0.340E+00    0.366E-01
RMM:   2    -0.960847169905E+02   -0.50554E-02   -0.56973E-02  6117   0.736E-01    0.172E-01
RMM:   3    -0.960861201420E+02   -0.14032E-02   -0.13508E-02  7942   0.390E-01    0.120E-01
RMM:   4    -0.960864674575E+02   -0.34732E-03   -0.19308E-03  7984   0.134E-01    0.131E-01
RMM:   5    -0.960862408842E+02    0.22657E-03   -0.41203E-04  7732   0.567E-02    0.802E-02
RMM:   6    -0.960862659185E+02   -0.25034E-04   -0.22474E-04  6287   0.338E-02    0.251E-02
RMM:   7    -0.960862785239E+02   -0.12605E-04   -0.84225E-05  5449   0.219E-02    0.206E-02
RMM:   8    -0.960862798182E+02   -0.12943E-05   -0.43688E-05  4729   0.136E-02
  87 F= -.99133676E+02 E0= -.99128596E+02  d E =-.342519E-02
       N       E                     dE             d eps       ncg     rms          rms(c)
DAV:   1    -0.960848446454E+02    0.14339E-02   -0.46556E-01  5568   0.168E+00    0.170E-01
RMM:   2    -0.960860813267E+02   -0.12367E-02   -0.13715E-02  6065   0.360E-01    0.832E-02
RMM:   3    -0.960864083936E+02   -0.32707E-03   -0.31726E-03  7790   0.189E-01    0.603E-02
RMM:   4    -0.960864867310E+02   -0.78337E-04   -0.48448E-04  7636   0.669E-02    0.652E-02
RMM:   5    -0.960864363702E+02    0.50361E-04   -0.11034E-04  6343   0.295E-02    0.390E-02
RMM:   6    -0.960864467878E+02   -0.10418E-04   -0.67934E-05  5124   0.190E-02    0.126E-02
RMM:   7    -0.960864520207E+02   -0.52330E-05   -0.26840E-05  4142   0.120E-02
  88 F= -.99134025E+02 E0= -.99128964E+02  d E =-.377460E-02
       N       E                     dE             d eps       ncg     rms          rms(c)
DAV:   1    -0.960857674558E+02    0.67933E-03   -0.45579E-01  5832   0.165E+00    0.163E-01
RMM:   2    -0.960867799905E+02   -0.10125E-02   -0.11246E-02  5965   0.353E-01    0.708E-02
RMM:   3    -0.960871104264E+02   -0.33044E-03   -0.33273E-03  7687   0.191E-01    0.503E-02
RMM:   4    -0.960871605709E+02   -0.50145E-04   -0.41003E-04  7409   0.624E-02    0.481E-02
RMM:   5    -0.960871517052E+02    0.88657E-05   -0.85327E-05  6205   0.277E-02
  89 F= -.99134877E+02 E0= -.99129823E+02  d E =-.851638E-03
       N       E                     dE             d eps       ncg     rms          rms(c)
DAV:   1    -0.960870997507E+02    0.60820E-04   -0.62357E-02  6280   0.607E-01    0.737E-02
RMM:   2    -0.960872252904E+02   -0.12554E-03   -0.15116E-03  5912   0.131E-01    0.344E-02
RMM:   3    -0.960872798812E+02   -0.54591E-04   -0.48111E-04  7407   0.725E-02    0.212E-02
RMM:   4    -0.960872876523E+02   -0.77711E-05   -0.72372E-05  5726   0.258E-02
  90 F= -.99135068E+02 E0= -.99130065E+02  d E =-.104321E-02
       N       E                     dE             d eps       ncg     rms          rms(c)
DAV:   1    -0.960865627489E+02    0.71713E-03   -0.25162E-01  5592   0.122E+00    0.116E-01
RMM:   2    -0.960871195490E+02   -0.55680E-03   -0.61760E-03  5942   0.262E-01    0.545E-02
RMM:   3    -0.960873130270E+02   -0.19348E-03   -0.18557E-03  7608   0.143E-01    0.457E-02
RMM:   4    -0.960873359519E+02   -0.22925E-04   -0.23816E-04  7118   0.476E-02    0.443E-02
RMM:   5    -0.960873245347E+02    0.11417E-04   -0.51166E-05  5333   0.219E-02    0.343E-02
RMM:   6    -0.960873329151E+02   -0.83804E-05   -0.42740E-05  4187   0.156E-02
  91 F= -.99135223E+02 E0= -.99130211E+02  d E =-.119835E-02
       N       E                     dE             d eps       ncg     rms          rms(c)
DAV:   1    -0.960867699251E+02    0.55461E-03   -0.44468E-01  5768   0.160E+00    0.161E-01
RMM:   2    -0.960876473799E+02   -0.87745E-03   -0.96071E-03  5896   0.341E-01    0.655E-02
RMM:   3    -0.960880233800E+02   -0.37600E-03   -0.34115E-03  7472   0.189E-01    0.548E-02
RMM:   4    -0.960880276477E+02   -0.42677E-05   -0.36725E-04  7314   0.598E-02    0.503E-02
RMM:   5    -0.960880183399E+02    0.93078E-05   -0.70558E-05  5841   0.259E-02
  92 F= -.99136022E+02 E0= -.99131030E+02  d E =-.798296E-03
       N       E                     dE             d eps       ncg     rms          rms(c)
DAV:   1    -0.960880046528E+02    0.22995E-04   -0.88896E-02  6152   0.715E-01    0.879E-02
RMM:   2    -0.960881682012E+02   -0.16355E-03   -0.18939E-03  5805   0.154E-01    0.393E-02
RMM:   3    -0.960882594564E+02   -0.91255E-04   -0.72228E-04  7303   0.876E-02    0.283E-02
RMM:   4    -0.960882530484E+02    0.64080E-05   -0.87233E-05  5884   0.290E-02
  93 F= -.99136306E+02 E0= -.99131350E+02  d E =-.108244E-02
       N       E                     dE             d eps       ncg     rms          rms(c)
DAV:   1    -0.960875189663E+02    0.74049E-03   -0.35763E-01  5672   0.144E+00    0.131E-01
RMM:   2    -0.960882306673E+02   -0.71170E-03   -0.77307E-03  5880   0.307E-01    0.566E-02
RMM:   3    -0.960885511513E+02   -0.32048E-03   -0.27861E-03  7462   0.171E-01    0.598E-02
RMM:   4    -0.960885305514E+02    0.20600E-04   -0.30060E-04  7160   0.542E-02    0.513E-02
RMM:   5    -0.960885312433E+02   -0.69190E-06   -0.61665E-05  5600   0.240E-02
  94 F= -.99136681E+02 E0= -.99131723E+02  d E =-.145753E-02
       N       E                     dE             d eps       ncg     rms          rms(c)
DAV:   1    -0.960844471499E+02    0.40834E-02   -0.14244E+00  5640   0.287E+00    0.302E-01
RMM:   2    -0.960872319596E+02   -0.27848E-02   -0.30822E-02  5926   0.615E-01    0.126E-01
RMM:   3    -0.960885075145E+02   -0.12756E-02   -0.11279E-02  7555   0.345E-01    0.103E-01
RMM:   4    -0.960885034761E+02    0.40384E-05   -0.11963E-03  7641   0.107E-01    0.907E-02
RMM:   5    -0.960884677963E+02    0.35680E-04   -0.23201E-04  7240   0.448E-02    0.750E-02
RMM:   6    -0.960884860564E+02   -0.18260E-04   -0.13885E-04  5448   0.291E-02    0.431E-02
RMM:   7    -0.960884952966E+02   -0.92402E-05   -0.54458E-05  4553   0.216E-02
  95 F= -.99136831E+02 E0= -.99131927E+02  d E =-.160720E-02
       N       E                     dE             d eps       ncg     rms          rms(c)
DAV:   1    -0.960873661950E+02    0.11199E-02   -0.46296E-01  5672   0.164E+00    0.156E-01
RMM:   2    -0.960882431513E+02   -0.87696E-03   -0.95779E-03  5870   0.343E-01    0.651E-02
RMM:   3    -0.960886271399E+02   -0.38399E-03   -0.34142E-03  7329   0.190E-01    0.539E-02
RMM:   4    -0.960886325748E+02   -0.54349E-05   -0.33891E-04  7108   0.576E-02    0.493E-02
RMM:   5    -0.960886264920E+02    0.60828E-05   -0.60347E-05  5701   0.249E-02
  96 F= -.99136857E+02 E0= -.99131928E+02  d E =-.163384E-02
       N       E                     dE             d eps       ncg     rms          rms(c)
DAV:   1    -0.960882680209E+02    0.36455E-03   -0.11624E-01  5936   0.824E-01    0.618E-02
RMM:   2    -0.960885098680E+02   -0.24185E-03   -0.25075E-03  5826   0.173E-01    0.223E-02
RMM:   3    -0.960885984192E+02   -0.88551E-04   -0.85427E-04  7102   0.945E-02    0.265E-02
RMM:   4    -0.960886038352E+02   -0.54160E-05   -0.86974E-05  5687   0.295E-02
  97 F= -.99136887E+02 E0= -.99131980E+02  d E =-.166389E-02
       N       E                     dE             d eps       ncg     rms          rms(c)
DAV:   1    -0.960885548098E+02    0.43609E-04   -0.25199E-02  5840   0.385E-01    0.586E-02
RMM:   2    -0.960886068472E+02   -0.52037E-04   -0.54638E-04  5659   0.808E-02    0.257E-02
RMM:   3    -0.960886280606E+02   -0.21213E-04   -0.19529E-04  5961   0.454E-02    0.611E-03
RMM:   4    -0.960886314125E+02   -0.33519E-05   -0.22766E-05  3402   0.162E-02
  98 F= -.99136890E+02 E0= -.99131975E+02  d E =-.166687E-02
       N       E                     dE             d eps       ncg     rms          rms(c)
DAV:   1    -0.960886084390E+02    0.19622E-04   -0.46389E-03  6200   0.167E-01    0.211E-02
RMM:   2    -0.960886180938E+02   -0.96547E-05   -0.10558E-04  5351   0.355E-02    0.885E-03
RMM:   3    -0.960886236192E+02   -0.55254E-05   -0.34302E-05  3609   0.199E-02
  99 F= -.99136893E+02 E0= -.99131959E+02  d E =-.166970E-02
       N       E                     dE             d eps       ncg     rms          rms(c)
DAV:   1    -0.960886232612E+02   -0.51675E-05   -0.91161E-04  6048   0.792E-02    0.121E-02
RMM:   2    -0.960886267172E+02   -0.34559E-05   -0.29057E-05  3491   0.193E-02
 100 F= -.99136891E+02 E0= -.99131960E+02  d E =-.166802E-02
       N       E                     dE             d eps       ncg     rms          rms(c)
DAV:   1    -0.960886252230E+02   -0.19617E-05   -0.30662E-04  6736   0.552E-02    0.708E-03
RMM:   2    -0.960886361906E+02   -0.10968E-04   -0.14880E-05  3338   0.134E-02    0.160E-02
RMM:   3    -0.960886248753E+02    0.11315E-04   -0.45407E-06  2795   0.679E-03    0.142E-03
RMM:   4    -0.960886249220E+02   -0.46635E-07   -0.20508E-06  2534   0.534E-03
 101 F= -.99136892E+02 E0= -.99131969E+02  d E =-.166897E-02
       N       E                     dE             d eps       ncg     rms          rms(c)
DAV:   1    -0.960882138897E+02    0.41099E-03   -0.38749E-01  5768   0.145E+00    0.137E-01
RMM:   2    -0.960889436460E+02   -0.72976E-03   -0.77566E-03  5779   0.312E-01    0.569E-02
RMM:   3    -0.960893213226E+02   -0.37768E-03   -0.32360E-03  7345   0.178E-01    0.580E-02
RMM:   4    -0.960892903175E+02    0.31005E-04   -0.30337E-04  6872   0.529E-02    0.487E-02
RMM:   5    -0.960892906705E+02   -0.35295E-06   -0.59274E-05  5328   0.233E-02
 102 F= -.99137616E+02 E0= -.99132699E+02  d E =-.723345E-03
       N       E                     dE             d eps       ncg     rms          rms(c)
DAV:   1    -0.960893128994E+02   -0.22582E-04   -0.49247E-02  6136   0.517E-01    0.641E-02
RMM:   2    -0.960894008582E+02   -0.87959E-04   -0.98262E-04  5630   0.112E-01    0.305E-02
RMM:   3    -0.960894725382E+02   -0.71680E-04   -0.43600E-04  6852   0.659E-02    0.300E-02
RMM:   4    -0.960894497063E+02    0.22832E-04   -0.49989E-05  4784   0.223E-02    0.168E-02
RMM:   5    -0.960894501314E+02   -0.42512E-06   -0.11465E-05  3329   0.115E-02
 103 F= -.99137796E+02 E0= -.99132886E+02  d E =-.903156E-03
       N       E                     dE             d eps       ncg     rms          rms(c)
DAV:   1    -0.960890812663E+02    0.36844E-03   -0.19667E-01  5712   0.103E+00    0.104E-01
RMM:   2    -0.960894465612E+02   -0.36529E-03   -0.39417E-03  5722   0.223E-01    0.438E-02
RMM:   3    -0.960896445074E+02   -0.19795E-03   -0.16626E-03  7263   0.128E-01    0.407E-02
RMM:   4    -0.960896282554E+02    0.16252E-04   -0.16545E-04  6443   0.388E-02    0.344E-02
RMM:   5    -0.960896277824E+02    0.47301E-06   -0.35055E-05  4082   0.175E-02
 104 F= -.99138014E+02 E0= -.99133113E+02  d E =-.112121E-02
       N       E                     dE             d eps       ncg     rms          rms(c)
DAV:   1    -0.960888919045E+02    0.73635E-03   -0.52342E-01  5712   0.174E+00    0.168E-01
RMM:   2    -0.960899997701E+02   -0.11079E-02   -0.11748E-02  5892   0.385E-01    0.805E-02
RMM:   3    -0.960905719623E+02   -0.57219E-03   -0.46757E-03  7567   0.218E-01    0.765E-02
RMM:   4    -0.960904988004E+02    0.73162E-04   -0.53996E-04  7494   0.719E-02    0.597E-02
RMM:   5    -0.960904969768E+02    0.18237E-05   -0.99814E-05  6278   0.295E-02
 105 F= -.99138920E+02 E0= -.99134009E+02  d E =-.906787E-03
       N       E                     dE             d eps       ncg     rms          rms(c)
DAV:   1    -0.960905280448E+02   -0.29244E-04   -0.89140E-03  6504   0.225E-01    0.511E-02
RMM:   2    -0.960905440301E+02   -0.15985E-04   -0.20280E-04  5739   0.519E-02    0.272E-02
RMM:   3    -0.960905569284E+02   -0.12898E-04   -0.10476E-04  5687   0.331E-02    0.563E-03
RMM:   4    -0.960905585069E+02   -0.15785E-05   -0.15719E-05  3360   0.136E-02
 106 F= -.99138987E+02 E0= -.99134092E+02  d E =-.973463E-03
       N       E                     dE             d eps       ncg     rms          rms(c)
DAV:   1    -0.960904979362E+02    0.58992E-04   -0.35672E-02  5864   0.453E-01    0.392E-02
RMM:   2    -0.960905742710E+02   -0.76335E-04   -0.80730E-04  5678   0.100E-01    0.195E-02
RMM:   3    -0.960906166315E+02   -0.42361E-04   -0.31851E-04  7014   0.575E-02    0.225E-02
RMM:   4    -0.960906089978E+02    0.76337E-05   -0.44031E-05  4465   0.210E-02
 107 F= -.99139048E+02 E0= -.99134147E+02  d E =-.103454E-02
       N       E                     dE             d eps       ncg     rms          rms(c)
DAV:   1    -0.960895995687E+02    0.10171E-02   -0.46361E-01  5584   0.166E+00    0.147E-01
RMM:   2    -0.960907119613E+02   -0.11124E-02   -0.11708E-02  5955   0.381E-01    0.782E-02
RMM:   3    -0.960912270965E+02   -0.51514E-03   -0.43705E-03  7728   0.213E-01    0.728E-02
RMM:   4    -0.960911924693E+02    0.34627E-04   -0.54368E-04  7579   0.729E-02    0.617E-02
RMM:   5    -0.960911880548E+02    0.44145E-05   -0.10986E-04  6528   0.313E-02    0.478E-02
RMM:   6    -0.960911945199E+02   -0.64651E-05   -0.57870E-05  4895   0.203E-02
 108 F= -.99139687E+02 E0= -.99134755E+02  d E =-.638509E-03
