       N       E                     dE             d eps       ncg     rms          rms(c)
DAV:   1     0.282646609871E+04    0.28265E+04   -0.88334E+04  7024   0.224E+03
DAV:   2     0.560891414859E+03   -0.22656E+04   -0.21684E+04  5624   0.740E+02
DAV:   3    -0.102714038353E+02   -0.57116E+03   -0.54522E+03  6560   0.262E+02
DAV:   4    -0.923218357458E+02   -0.82050E+02   -0.80313E+02  7872   0.101E+02
DAV:   5    -0.985017853731E+02   -0.61799E+01   -0.61060E+01  8224   0.276E+01    0.342E+01
DAV:   6    -0.949514955097E+02    0.35503E+01   -0.58889E+01  8840   0.286E+01    0.337E+01
DAV:   7    -0.962531954934E+02   -0.13017E+01   -0.19196E+02  7112   0.354E+01    0.232E+01
DAV:   8    -0.954309784391E+02    0.82222E+00   -0.35180E+01  7696   0.174E+01    0.191E+01
DAV:   9    -0.935993164152E+02    0.18317E+01   -0.27888E+01  7168   0.141E+01    0.127E+01
DAV:  10    -0.886468137219E+02    0.49525E+01   -0.17137E+01  7872   0.103E+01    0.593E+00
DAV:  11    -0.882476804385E+02    0.39913E+00   -0.23465E+00  7648   0.568E+00    0.380E+00
DAV:  12    -0.880811893676E+02    0.16649E+00   -0.46974E-01  7920   0.232E+00    0.207E+00
DAV:  13    -0.880611465114E+02    0.20043E-01   -0.10990E-01  7600   0.192E+00    0.120E+00
DAV:  14    -0.880602883549E+02    0.85816E-03   -0.47422E-02  8616   0.990E-01    0.879E-01
DAV:  15    -0.880465906353E+02    0.13698E-01   -0.36109E-02  7792   0.859E-01    0.384E-01
DAV:  16    -0.880540987393E+02   -0.75081E-02   -0.22849E-02  7672   0.579E-01    0.711E-01
DAV:  17    -0.880452553878E+02    0.88434E-02   -0.21359E-02  7072   0.485E-01    0.109E-01
DAV:  18    -0.880460298750E+02   -0.77449E-03   -0.75625E-03  7640   0.317E-01    0.295E-01
DAV:  19    -0.880450921023E+02    0.93777E-03   -0.22259E-03  6520   0.209E-01    0.108E-01
DAV:  20    -0.880451156734E+02   -0.23571E-04   -0.62437E-04  7632   0.770E-02    0.336E-02
DAV:  21    -0.880454365857E+02   -0.32091E-03   -0.12221E-04  6280   0.871E-02    0.419E-02
DAV:  22    -0.880459117047E+02   -0.47512E-03   -0.26525E-04  5504   0.944E-02    0.241E-02
DAV:  23    -0.880460724943E+02   -0.16079E-03   -0.62979E-05  5776   0.267E-02    0.203E-02
DAV:  24    -0.880463863010E+02   -0.31381E-03   -0.42712E-05  4648   0.312E-02    0.152E-02
DAV:  25    -0.880464436854E+02   -0.57384E-04   -0.11944E-05  4584   0.215E-02    0.640E-03
DAV:  26    -0.880466606945E+02   -0.21701E-03   -0.20187E-05  4224   0.164E-02    0.174E-02
DAV:  27    -0.880467344899E+02   -0.73795E-04   -0.14948E-05  4520   0.146E-02    0.392E-03
DAV:  28    -0.880467494237E+02   -0.14934E-04   -0.19305E-06  3736   0.839E-03    0.348E-03
DAV:  29    -0.880467736615E+02   -0.24238E-04   -0.23153E-06  3952   0.569E-03    0.402E-03
DAV:  30    -0.880467804135E+02   -0.67519E-05   -0.15389E-06  3752   0.482E-03
   1 F= -.90990812E+02 E0= -.90989785E+02  d E =-.909908E+02
       N       E                     dE             d eps       ncg     rms          rms(c)
DAV:   1    -0.880472015022E+02   -0.42784E-03   -0.10496E-01  5712   0.869E-01    0.168E-01
DAV:   2    -0.880476682036E+02   -0.46670E-03   -0.51130E-03  6384   0.222E-01    0.872E-02
DAV:   3    -0.880477242200E+02   -0.56016E-04   -0.67636E-04  7288   0.867E-02    0.619E-02
DAV:   4    -0.880477699958E+02   -0.45776E-04   -0.71970E-04  6056   0.796E-02    0.783E-02
DAV:   5    -0.880476848797E+02    0.85116E-04   -0.35564E-04  5712   0.746E-02    0.187E-02
DAV:   6    -0.880476892959E+02   -0.44163E-05   -0.64138E-05  5224   0.561E-02
   2 F= -.90991324E+02 E0= -.90990287E+02  d E =-.511151E-03
       N       E                     dE             d eps       ncg     rms          rms(c)
DAV:   1    -0.880478272511E+02   -0.14237E-03   -0.23316E-02  5680   0.416E-01    0.791E-02
DAV:   2    -0.880479288781E+02   -0.10163E-03   -0.11429E-03  6552   0.113E-01    0.408E-02
DAV:   3    -0.880479508975E+02   -0.22019E-04   -0.21672E-04  6960   0.771E-02    0.273E-02
DAV:   4    -0.880479456131E+02    0.52844E-05   -0.22051E-04  5776   0.786E-02    0.276E-02
DAV:   5    -0.880479380001E+02    0.76130E-05   -0.72807E-05  4912   0.297E-02
   3 F= -.90991386E+02 E0= -.90990340E+02  d E =-.573103E-03
       N       E                     dE             d eps       ncg     rms          rms(c)
DAV:   1    -0.880482045104E+02   -0.25890E-03   -0.20812E-02  5608   0.387E-01    0.962E-02
DAV:   2    -0.880482958417E+02   -0.91331E-04   -0.97255E-04  6600   0.107E-01    0.485E-02
DAV:   3    -0.880483474443E+02   -0.51603E-04   -0.27234E-04  6336   0.877E-02    0.600E-02
DAV:   4    -0.880483039669E+02    0.43477E-04   -0.24130E-04  5728   0.503E-02    0.251E-02
DAV:   5    -0.880483055159E+02   -0.15491E-05   -0.12477E-04  4664   0.599E-02    0.171E-02
DAV:   6    -0.880482956837E+02    0.98322E-05   -0.41728E-05  4064   0.390E-02
   4 F= -.90991612E+02 E0= -.90990563E+02  d E =-.226233E-03
       N       E                     dE             d eps       ncg     rms          rms(c)
DAV:   1    -0.880483013714E+02    0.41445E-05   -0.12530E-01  5480   0.948E-01    0.233E-01
DAV:   2    -0.880488209308E+02   -0.51956E-03   -0.56579E-03  6720   0.237E-01    0.115E-01
DAV:   3    -0.880489472693E+02   -0.12634E-03   -0.10256E-03  6480   0.192E-01    0.682E-02
DAV:   4    -0.880489362932E+02    0.10976E-04   -0.14983E-03  6608   0.197E-01    0.743E-02
DAV:   5    -0.880488707151E+02    0.65578E-04   -0.42093E-04  6256   0.575E-02    0.361E-02
DAV:   6    -0.880488447661E+02    0.25949E-04   -0.76536E-05  4792   0.562E-02    0.111E-02
DAV:   7    -0.880488454854E+02   -0.71938E-06   -0.79710E-06  3632   0.140E-02
   5 F= -.90991840E+02 E0= -.90990782E+02  d E =-.454116E-03
       N       E                     dE             d eps       ncg     rms          rms(c)
DAV:   1    -0.880490157271E+02   -0.17096E-03   -0.21457E-02  5560   0.384E-01    0.288E-02
DAV:   2    -0.880490910299E+02   -0.75303E-04   -0.78382E-04  6648   0.928E-02    0.152E-02
DAV:   3    -0.880490953939E+02   -0.43640E-05   -0.56913E-05  5640   0.282E-02
   6 F= -.90992021E+02 E0= -.90990950E+02  d E =-.181777E-03
       N       E                     dE             d eps       ncg     rms          rms(c)
DAV:   1    -0.880490945279E+02   -0.34980E-05   -0.19299E-01  5472   0.115E+00    0.875E-02
DAV:   2    -0.880497355756E+02   -0.64105E-03   -0.66410E-03  6800   0.263E-01    0.529E-02
DAV:   3    -0.880498448893E+02   -0.10931E-03   -0.10220E-03  7520   0.133E-01    0.818E-02
DAV:   4    -0.880497566915E+02    0.88198E-04   -0.38619E-04  6064   0.763E-02    0.318E-02
DAV:   5    -0.880497548542E+02    0.18372E-05   -0.28987E-05  4864   0.215E-02
   7 F= -.90992478E+02 E0= -.90991373E+02  d E =-.637842E-03
       N       E                     dE             d eps       ncg     rms          rms(c)
DAV:   1    -0.880480153420E+02    0.17413E-02   -0.77072E-01  5472   0.230E+00    0.176E-01
DAV:   2    -0.880505439827E+02   -0.25286E-02   -0.26277E-02  6440   0.524E-01    0.936E-02
DAV:   3    -0.880507965173E+02   -0.25253E-03   -0.26339E-03  7736   0.192E-01    0.113E-01
DAV:   4    -0.880507069595E+02    0.89558E-04   -0.94585E-04  7040   0.866E-02    0.720E-02
DAV:   5    -0.880506940832E+02    0.12876E-04   -0.44464E-04  5656   0.113E-01    0.429E-02
DAV:   6    -0.880506675755E+02    0.26508E-04   -0.28490E-04  5952   0.111E-01    0.201E-02
DAV:   7    -0.880506650385E+02    0.25370E-05   -0.69289E-05  5776   0.399E-02
   8 F= -.90992986E+02 E0= -.90991812E+02  d E =-.114586E-02
       N       E                     dE             d eps       ncg     rms          rms(c)
DAV:   1    -0.880504148037E+02    0.25277E-03   -0.13602E-01  5464   0.964E-01    0.762E-02
DAV:   2    -0.880508707963E+02   -0.45599E-03   -0.47386E-03  6864   0.219E-01    0.358E-02
DAV:   3    -0.880509028815E+02   -0.32085E-04   -0.37965E-04  6952   0.640E-02    0.329E-02
DAV:   4    -0.880509101895E+02   -0.73080E-05   -0.12453E-04  5608   0.339E-02    0.365E-02
DAV:   5    -0.880508970621E+02    0.13127E-04   -0.66480E-05  4768   0.357E-02    0.141E-02
DAV:   6    -0.880508981698E+02   -0.11077E-05   -0.30491E-05  3912   0.432E-02
   9 F= -.90993052E+02 E0= -.90991849E+02  d E =-.121210E-02
       N       E                     dE             d eps       ncg     rms          rms(c)
DAV:   1    -0.880509478791E+02   -0.50817E-04   -0.92982E-02  5448   0.800E-01    0.188E-01
DAV:   2    -0.880512785846E+02   -0.33071E-03   -0.35109E-03  6680   0.183E-01    0.804E-02
DAV:   3    -0.880513561634E+02   -0.77579E-04   -0.63138E-04  7520   0.137E-01    0.598E-02
DAV:   4    -0.880513180041E+02    0.38159E-04   -0.74981E-04  6200   0.131E-01    0.501E-02
DAV:   5    -0.880512940686E+02    0.23935E-04   -0.16911E-04  5648   0.368E-02    0.258E-02
DAV:   6    -0.880512819267E+02    0.12142E-04   -0.46363E-05  4984   0.427E-02    0.687E-03
DAV:   7    -0.880512824326E+02   -0.50595E-06   -0.66657E-06  3248   0.155E-02
  10 F= -.90993543E+02 E0= -.90992337E+02  d E =-.491333E-03
