       N       E                     dE             d eps       ncg     rms          rms(c)
DAV:   1     0.283594793865E+04    0.28359E+04   -0.88429E+04  7064   0.224E+03
DAV:   2     0.563771219047E+03   -0.22722E+04   -0.21743E+04  5632   0.746E+02
DAV:   3    -0.879092902465E+01   -0.57256E+03   -0.54588E+03  6456   0.263E+02
DAV:   4    -0.914994907535E+02   -0.82709E+02   -0.80913E+02  7912   0.103E+02
DAV:   5    -0.977251178025E+02   -0.62256E+01   -0.61467E+01  8112   0.276E+01    0.319E+01
DAV:   6    -0.937806407959E+02    0.39445E+01   -0.50169E+01  9320   0.274E+01    0.307E+01
DAV:   7    -0.965855164227E+02   -0.28049E+01   -0.17730E+02  7088   0.324E+01    0.212E+01
DAV:   8    -0.958131346089E+02    0.77238E+00   -0.43672E+01  7792   0.204E+01    0.197E+01
DAV:   9    -0.921915659995E+02    0.36216E+01   -0.24613E+01  7064   0.112E+01    0.120E+01
DAV:  10    -0.889437458576E+02    0.32478E+01   -0.60754E+00  7456   0.833E+00    0.634E+00
DAV:  11    -0.884166910580E+02    0.52705E+00   -0.25111E+00  8256   0.501E+00    0.271E+00
DAV:  12    -0.883513185571E+02    0.65373E-01   -0.60580E-01  7720   0.273E+00    0.202E+00
DAV:  13    -0.883267798045E+02    0.24539E-01   -0.11208E-01  7728   0.169E+00    0.112E+00
DAV:  14    -0.883264160484E+02    0.36376E-03   -0.96720E-02  8376   0.987E-01    0.717E-01
DAV:  15    -0.883213619706E+02    0.50541E-02   -0.14958E-02  7624   0.655E-01    0.464E-01
DAV:  16    -0.883186741602E+02    0.26878E-02   -0.16136E-02  7448   0.389E-01    0.726E-02
DAV:  17    -0.883187213665E+02   -0.47206E-04   -0.21711E-03  7808   0.173E-01    0.105E-01
DAV:  18    -0.883186753891E+02    0.45977E-04   -0.63354E-04  6992   0.110E-01    0.113E-01
DAV:  19    -0.883188616178E+02   -0.18623E-03   -0.23808E-03  6784   0.130E-01    0.128E-01
DAV:  20    -0.883187850812E+02    0.76537E-04   -0.14346E-03  5912   0.876E-02    0.551E-02
DAV:  21    -0.883190254514E+02   -0.24037E-03   -0.22136E-04  5592   0.561E-02    0.439E-02
DAV:  22    -0.883192428911E+02   -0.21744E-03   -0.88804E-05  5424   0.304E-02    0.161E-02
DAV:  23    -0.883195127412E+02   -0.26985E-03   -0.70269E-05  5392   0.198E-02    0.212E-02
DAV:  24    -0.883198032898E+02   -0.29055E-03   -0.47409E-05  4864   0.212E-02    0.703E-03
DAV:  25    -0.883199627671E+02   -0.15948E-03   -0.11594E-05  4456   0.112E-02    0.426E-03
DAV:  26    -0.883200574070E+02   -0.94640E-04   -0.10186E-05  4488   0.898E-03    0.764E-03
DAV:  27    -0.883200849139E+02   -0.27507E-04   -0.27560E-06  4120   0.666E-03    0.288E-03
DAV:  28    -0.883200963600E+02   -0.11446E-04   -0.14967E-06  4104   0.531E-03    0.751E-04
DAV:  29    -0.883201007230E+02   -0.43629E-05   -0.73023E-07  3864   0.368E-03
   1 F= -.91292239E+02 E0= -.91288206E+02  d E =-.120966E-01
       N       E                     dE             d eps       ncg     rms          rms(c)
DAV:   1    -0.883193818821E+02    0.71448E-03   -0.12602E-01  4976   0.497E-01    0.983E-02
DAV:   2    -0.883197010015E+02   -0.31912E-03   -0.29378E-03  6032   0.104E-01    0.635E-02
DAV:   3    -0.883198094690E+02   -0.10847E-03   -0.45259E-04  6248   0.502E-02    0.736E-02
DAV:   4    -0.883197796375E+02    0.29831E-04   -0.54294E-04  6008   0.581E-02    0.431E-02
DAV:   5    -0.883197686521E+02    0.10985E-04   -0.28019E-04  5528   0.769E-02    0.178E-02
DAV:   6    -0.883197559810E+02    0.12671E-04   -0.71342E-05  4640   0.498E-02    0.382E-03
DAV:   7    -0.883197567300E+02   -0.74895E-06   -0.41290E-06  3416   0.834E-03
   2 F= -.91291968E+02 E0= -.91287912E+02  d E =-.121686E-01
       N       E                     dE             d eps       ncg     rms          rms(c)
DAV:   1    -0.883179360741E+02    0.18199E-02   -0.50407E-01  4816   0.993E-01    0.195E-01
DAV:   2    -0.883191944018E+02   -0.12583E-02   -0.11529E-02  6328   0.208E-01    0.127E-01
DAV:   3    -0.883195801089E+02   -0.38571E-03   -0.16048E-03  6528   0.952E-02    0.136E-01
DAV:   4    -0.883195087804E+02    0.71329E-04   -0.20587E-03  6112   0.116E-01    0.916E-02
DAV:   5    -0.883194489783E+02    0.59802E-04   -0.11077E-03  6168   0.156E-01    0.335E-02
DAV:   6    -0.883193995068E+02    0.49472E-04   -0.26030E-04  5600   0.913E-02    0.682E-03
DAV:   7    -0.883194016237E+02   -0.21169E-05   -0.15060E-05  4576   0.142E-02
   3 F= -.91291473E+02 E0= -.91287464E+02  d E =-.120259E-01
       N       E                     dE             d eps       ncg     rms          rms(c)
DAV:   1    -0.883193430148E+02    0.56492E-04   -0.25281E-01  4816   0.706E-01    0.143E-01
DAV:   2    -0.883199688087E+02   -0.62579E-03   -0.58683E-03  6208   0.143E-01    0.900E-02
DAV:   3    -0.883201106137E+02   -0.14181E-03   -0.60707E-04  6544   0.991E-02    0.600E-02
DAV:   4    -0.883201794115E+02   -0.68798E-04   -0.12052E-03  6344   0.139E-01    0.843E-02
DAV:   5    -0.883200830143E+02    0.96397E-04   -0.42116E-04  6120   0.545E-02    0.196E-02
DAV:   6    -0.883200754851E+02    0.75292E-05   -0.42956E-05  4736   0.406E-02
   4 F= -.91292051E+02 E0= -.91288029E+02  d E =-.120670E-01
       N       E                     dE             d eps       ncg     rms          rms(c)
DAV:   1    -0.883172739633E+02    0.28091E-02   -0.50611E-01  4824   0.100E+00    0.222E-01
DAV:   2    -0.883185230999E+02   -0.12491E-02   -0.13408E-02  6304   0.230E-01    0.135E-01
DAV:   3    -0.883188510375E+02   -0.32794E-03   -0.21497E-03  6912   0.225E-01    0.927E-02
DAV:   4    -0.883187684269E+02    0.82611E-04   -0.11392E-03  6216   0.204E-01    0.509E-02
DAV:   5    -0.883187916634E+02   -0.23237E-04   -0.57476E-04  6616   0.118E-01    0.556E-02
DAV:   6    -0.883187680175E+02    0.23646E-04   -0.49689E-04  6056   0.717E-02    0.393E-02
DAV:   7    -0.883187470869E+02    0.20931E-04   -0.90443E-05  5488   0.319E-02    0.106E-02
DAV:   8    -0.883187481222E+02   -0.10353E-05   -0.19028E-05  4512   0.155E-02
   5 F= -.91291046E+02 E0= -.91287000E+02  d E =-.121396E-01
       N       E                     dE             d eps       ncg     rms          rms(c)
DAV:   1    -0.883116880193E+02    0.70591E-02   -0.25834E-01  4944   0.725E-01    0.193E-01
DAV:   2    -0.883120895080E+02   -0.40149E-03   -0.86604E-03  6032   0.212E-01    0.122E-01
DAV:   3    -0.883123305610E+02   -0.24105E-03   -0.29222E-03  7136   0.219E-01    0.854E-02
DAV:   4    -0.883122482365E+02    0.82324E-04   -0.14852E-03  6288   0.218E-01    0.691E-02
DAV:   5    -0.883122736625E+02   -0.25426E-04   -0.10717E-03  6888   0.117E-01    0.904E-02
DAV:   6    -0.883121999047E+02    0.73758E-04   -0.59207E-04  6168   0.521E-02    0.341E-02
DAV:   7    -0.883121841901E+02    0.15715E-04   -0.67930E-05  5944   0.315E-02    0.104E-02
DAV:   8    -0.883121860615E+02   -0.18714E-05   -0.42102E-05  5400   0.181E-02
   6 F= -.91284270E+02 E0= -.91280249E+02  d E =-.120613E-01
       N       E                     dE             d eps       ncg     rms          rms(c)
DAV:   1    -0.883132334140E+02   -0.10492E-02   -0.57469E-01  5736   0.112E+00    0.416E-01
DAV:   2    -0.883129982020E+02    0.23521E-03   -0.34855E-02  6136   0.467E-01    0.261E-01
DAV:   3    -0.883138591910E+02   -0.86099E-03   -0.16037E-02  6848   0.523E-01    0.207E-01
DAV:   4    -0.883131818254E+02    0.67737E-03   -0.69468E-03  6536   0.505E-01    0.147E-01
DAV:   5    -0.883133651309E+02   -0.18331E-03   -0.46548E-03  6928   0.244E-01    0.198E-01
DAV:   6    -0.883129994784E+02    0.36565E-03   -0.31824E-03  6624   0.135E-01    0.827E-02
DAV:   7    -0.883129080196E+02    0.91459E-04   -0.41692E-04  6360   0.733E-02    0.258E-02
DAV:   8    -0.883129041967E+02    0.38230E-05   -0.16533E-04  6280   0.417E-02    0.105E-02
DAV:   9    -0.883129050016E+02   -0.80491E-06   -0.25555E-05  4680   0.167E-02
   7 F= -.91285103E+02 E0= -.91281058E+02  d E =-.121328E-01
       N       E                     dE             d eps       ncg     rms          rms(c)
DAV:   1    -0.883149737190E+02   -0.20695E-02   -0.17005E+00  5208   0.216E+00    0.274E-01
DAV:   2    -0.883184383924E+02   -0.34647E-02   -0.47539E-02  6448   0.482E-01    0.176E-01
DAV:   3    -0.883185342554E+02   -0.95863E-04   -0.49037E-03  7120   0.257E-01    0.135E-01
DAV:   4    -0.883188208829E+02   -0.28663E-03   -0.45080E-03  6704   0.301E-01    0.174E-01
DAV:   5    -0.883184961623E+02    0.32472E-03   -0.28788E-03  6768   0.161E-01    0.114E-01
DAV:   6    -0.883183614010E+02    0.13476E-03   -0.80042E-04  6424   0.126E-01    0.408E-02
DAV:   7    -0.883183380828E+02    0.23318E-04   -0.15364E-04  6432   0.594E-02    0.163E-02
DAV:   8    -0.883183394998E+02   -0.14170E-05   -0.68581E-05  5768   0.249E-02
   8 F= -.91290577E+02 E0= -.91286599E+02  d E =-.119340E-01
       N       E                     dE             d eps       ncg     rms          rms(c)
DAV:   1    -0.883067221185E+02    0.11616E-01   -0.63454E+00  6160   0.411E+00    0.378E-01
DAV:   2    -0.883191353163E+02   -0.12413E-01   -0.14166E-01  6784   0.814E-01    0.245E-01
DAV:   3    -0.883188085372E+02    0.32678E-03   -0.56967E-03  7376   0.179E-01    0.188E-01
DAV:   4    -0.883197783192E+02   -0.96978E-03   -0.82378E-03  7680   0.227E-01    0.312E-01
DAV:   5    -0.883185267659E+02    0.12516E-02   -0.67342E-03  6224   0.308E-01    0.663E-02
DAV:   6    -0.883184148468E+02    0.11192E-03   -0.14073E-03  6488   0.214E-01    0.322E-02
DAV:   7    -0.883184101559E+02    0.46909E-05   -0.14921E-04  6368   0.526E-02    0.210E-02
DAV:   8    -0.883184086155E+02    0.15404E-05   -0.34764E-05  5384   0.208E-02
   9 F= -.91290450E+02 E0= -.91286369E+02  d E =-.122436E-01
       N       E                     dE             d eps       ncg     rms          rms(c)
DAV:   1    -0.883132838515E+02    0.51263E-02   -0.32366E+00  5576   0.291E+00    0.625E-01
DAV:   2    -0.883188811544E+02   -0.55973E-02   -0.67237E-02  6800   0.544E-01    0.347E-01
DAV:   3    -0.883184669038E+02    0.41425E-03   -0.30701E-03  6864   0.189E-01    0.131E-01
DAV:   4    -0.883190183765E+02   -0.55147E-03   -0.32652E-03  6688   0.220E-01    0.198E-01
DAV:   5    -0.883185630551E+02    0.45532E-03   -0.25217E-03  6712   0.115E-01    0.672E-02
DAV:   6    -0.883184903569E+02    0.72698E-04   -0.59440E-04  6216   0.110E-01    0.352E-02
DAV:   7    -0.883184840016E+02    0.63553E-05   -0.11770E-04  5664   0.437E-02    0.150E-02
DAV:   8    -0.883184822865E+02    0.17151E-05   -0.13264E-05  4376   0.155E-02
  10 F= -.91290677E+02 E0= -.91286577E+02  d E =-.122982E-01
       N       E                     dE             d eps       ncg     rms          rms(c)
DAV:   1    -0.883100583328E+02    0.84257E-02   -0.65905E+00  6048   0.406E+00    0.116E+00
DAV:   2    -0.883182533343E+02   -0.81950E-02   -0.10739E-01  6824   0.677E-01    0.700E-01
DAV:   3    -0.883175757246E+02    0.67761E-03   -0.91173E-03  7528   0.376E-01    0.160E-01
DAV:   4    -0.883198853527E+02   -0.23096E-02   -0.20141E-02  6624   0.713E-01    0.298E-01
DAV:   5    -0.883176123419E+02    0.22730E-02   -0.12512E-02  6976   0.488E-01    0.131E-01
DAV:   6    -0.883174337204E+02    0.17862E-03   -0.10398E-03  6976   0.112E-01    0.581E-02
DAV:   7    -0.883174136517E+02    0.20069E-04   -0.11843E-04  5792   0.460E-02    0.211E-02
DAV:   8    -0.883174119190E+02    0.17327E-05   -0.22162E-05  5152   0.197E-02
  11 F= -.91289488E+02 E0= -.91285526E+02  d E =-.118854E-01
       N       E                     dE             d eps       ncg     rms          rms(c)
DAV:   1    -0.883060218078E+02    0.11392E-01   -0.32233E+00  6064   0.293E+00    0.457E-01
DAV:   2    -0.883125729041E+02   -0.65511E-02   -0.81843E-02  6728   0.600E-01    0.283E-01
DAV:   3    -0.883124797061E+02    0.93198E-04   -0.70459E-03  7232   0.314E-01    0.249E-01
DAV:   4    -0.883129392510E+02   -0.45954E-03   -0.91996E-03  6880   0.219E-01    0.283E-01
DAV:   5    -0.883125165455E+02    0.42271E-03   -0.94525E-03  6624   0.409E-01    0.125E-01
DAV:   6    -0.883119253301E+02    0.59122E-03   -0.33024E-03  6416   0.310E-01    0.325E-02
DAV:   7    -0.883119354862E+02   -0.10156E-04   -0.22725E-04  6280   0.503E-02    0.207E-02
DAV:   8    -0.883119304643E+02    0.50219E-05   -0.20843E-05  4928   0.221E-02
  12 F= -.91283421E+02 E0= -.91279445E+02  d E =-.119289E-01
       N       E                     dE             d eps       ncg     rms          rms(c)
DAV:   1    -0.882994165295E+02    0.12519E-01   -0.63545E+00  5832   0.413E+00    0.735E-01
DAV:   2    -0.883111355758E+02   -0.11719E-01   -0.17422E-01  6720   0.857E-01    0.445E-01
DAV:   3    -0.883127847253E+02   -0.16491E-02   -0.27551E-02  7504   0.491E-01    0.487E-01
DAV:   4    -0.883121797081E+02    0.60502E-03   -0.29161E-02  6960   0.385E-01    0.391E-01
DAV:   5    -0.883113316530E+02    0.84806E-03   -0.20570E-02  6944   0.650E-01    0.190E-01
DAV:   6    -0.883100944801E+02    0.12372E-02   -0.66522E-03  6624   0.484E-01    0.572E-02
DAV:   7    -0.883101189157E+02   -0.24436E-04   -0.67368E-04  6728   0.868E-02    0.373E-02
DAV:   8    -0.883101034952E+02    0.15420E-04   -0.15878E-04  6248   0.455E-02    0.227E-02
DAV:   9    -0.883101026741E+02    0.82115E-06   -0.62513E-05  5112   0.249E-02
  13 F= -.91282883E+02 E0= -.91278795E+02  d E =-.122626E-01
