       N       E                     dE             d eps       ncg     rms          rms(c)
DAV:   1     0.443573369393E+03    0.44357E+03   -0.13225E+04  2000   0.843E+02
DAV:   2     0.319506113109E+02   -0.41162E+03   -0.39131E+03  2200   0.246E+02
DAV:   3    -0.760882711992E+02   -0.10804E+03   -0.10481E+03  3768   0.131E+02
DAV:   4    -0.870181227316E+02   -0.10930E+02   -0.10799E+02  3320   0.518E+01
DAV:   5    -0.873793844676E+02   -0.36126E+00   -0.36032E+00  3360   0.114E+01    0.339E+01
RMM:   6    -0.783263885295E+02    0.90530E+01   -0.24989E+01  2260   0.323E+01    0.111E+01
RMM:   7    -0.830705962320E+02   -0.47442E+01   -0.24037E+01  2708   0.167E+01    0.864E+00
RMM:   8    -0.782488354639E+02    0.48218E+01   -0.67086E+00  2530   0.119E+01    0.565E+00
RMM:   9    -0.777084734621E+02    0.54036E+00   -0.12443E+00  2196   0.787E+00    0.415E+00
RMM:  10    -0.776239174234E+02    0.84556E-01   -0.10855E+00  2592   0.378E+00    0.886E-01
RMM:  11    -0.776157530572E+02    0.81644E-02   -0.16148E-01  2544   0.219E+00    0.462E-01
RMM:  12    -0.776144298670E+02    0.13232E-02   -0.37798E-02  2548   0.904E-01    0.315E-01
RMM:  13    -0.776104689598E+02    0.39609E-02   -0.17399E-02  2687   0.448E-01    0.136E-01
RMM:  14    -0.776086884193E+02    0.17805E-02   -0.10062E-02  2721   0.378E-01    0.964E-02
RMM:  15    -0.776088195234E+02   -0.13110E-03   -0.27840E-03  2714   0.197E-01    0.608E-02
RMM:  16    -0.776089449899E+02   -0.12547E-03   -0.25247E-03  2615   0.159E-01    0.463E-02
RMM:  17    -0.776094143990E+02   -0.46941E-03   -0.66170E-04  2582   0.112E-01    0.324E-02
RMM:  18    -0.776098482229E+02   -0.43382E-03   -0.33066E-04  2351   0.675E-02    0.151E-02
RMM:  19    -0.776104536827E+02   -0.60546E-03   -0.15253E-04  1953   0.427E-02    0.124E-02
RMM:  20    -0.776111970608E+02   -0.74338E-03   -0.11395E-04  1767   0.371E-02    0.108E-02
RMM:  21    -0.776114318370E+02   -0.23478E-03   -0.52223E-05  1592   0.294E-02    0.629E-03
RMM:  22    -0.776117020969E+02   -0.27026E-03   -0.42647E-05  1560   0.252E-02    0.353E-03
RMM:  23    -0.776117588961E+02   -0.56799E-04   -0.13084E-05  1379   0.214E-02    0.228E-03
RMM:  24    -0.776117858221E+02   -0.26926E-04   -0.74985E-06  1304   0.162E-02    0.273E-03
RMM:  25    -0.776117995876E+02   -0.13766E-04   -0.49525E-06  1284   0.145E-02    0.221E-03
RMM:  26    -0.776118027553E+02   -0.31676E-05   -0.24909E-06  1244   0.103E-02
   1 F= -.80725662E+02 E0= -.80732443E+02  d E =-.807257E+02
       N       E                     dE             d eps       ncg     rms          rms(c)
DAV:   1    -0.513592505014E+02    0.26253E+02   -0.14477E+03  2016   0.151E+02    0.257E+01
RMM:   2    -0.749563917000E+02   -0.23597E+02   -0.29688E+02  2977   0.803E+01    0.153E+01
RMM:   3    -0.836783961060E+02   -0.87220E+01   -0.10198E+02  2716   0.363E+01    0.164E+01
RMM:   4    -0.812038568335E+02    0.24745E+01   -0.30073E+01  2610   0.194E+01    0.157E+01
RMM:   5    -0.748768557517E+02    0.63270E+01   -0.89337E+00  2444   0.115E+01    0.938E+00
RMM:   6    -0.866451011619E+02   -0.11768E+02   -0.15270E+01  2668   0.132E+01    0.216E+01
RMM:   7    -0.776930686069E+02    0.89520E+01   -0.16393E+00  2527   0.533E+00    0.187E+01
RMM:   8    -0.797759437923E+02   -0.20829E+01   -0.30469E+01  2980   0.147E+01    0.102E+01
RMM:   9    -0.769281904416E+02    0.28478E+01   -0.19194E+00  2567   0.436E+00    0.702E+00
RMM:  10    -0.755977151976E+02    0.13305E+01   -0.92101E-01  2689   0.270E+00    0.543E+00
RMM:  11    -0.756426001720E+02   -0.44885E-01   -0.63728E-02  2572   0.865E-01    0.568E+00
RMM:  12    -0.750719175793E+02    0.57068E+00   -0.10435E-01  2637   0.997E-01    0.558E+00
RMM:  13    -0.745166023331E+02    0.55532E+00   -0.17676E-01  2713   0.926E-01    0.489E+00
RMM:  14    -0.745267375773E+02   -0.10135E-01   -0.26187E-02  2735   0.547E-01    0.466E+00
RMM:  15    -0.738486317480E+02    0.67811E+00   -0.21576E-01  2861   0.105E+00    0.399E+00
RMM:  16    -0.735279921665E+02    0.32064E+00   -0.13590E-01  2718   0.785E-01    0.320E+00
RMM:  17    -0.736308930953E+02   -0.10290E+00   -0.12554E-02  2497   0.371E-01    0.342E+00
RMM:  18    -0.732293259707E+02    0.40157E+00   -0.21106E-01  3047   0.101E+00    0.122E+00
RMM:  19    -0.733474971744E+02   -0.11817E+00   -0.12234E-01  2884   0.697E-01    0.467E+00
RMM:  20    -0.735259936442E+02   -0.17850E+00   -0.27540E-02  2681   0.407E-01    0.676E+00
RMM:  21    -0.733313596312E+02    0.19463E+00   -0.61638E-03  2494   0.348E-01    0.477E+00
RMM:  22    -0.736972307850E+02   -0.36587E+00   -0.17839E-02  2740   0.371E-01    0.806E+00
RMM:  23    -0.735570096504E+02    0.14022E+00   -0.26950E-03  2418   0.242E-01    0.722E+00
RMM:  24    -0.733679506653E+02    0.18906E+00   -0.95734E-03  2592   0.237E-01    0.534E+00
RMM:  25    -0.733335289121E+02    0.34422E-01   -0.38523E-03  2704   0.211E-01    0.453E+00
RMM:  26    -0.732026380992E+02    0.13089E+00   -0.35271E-02  3086   0.426E-01    0.525E-01
RMM:  27    -0.732225847312E+02   -0.19947E-01   -0.53276E-03  2693   0.269E-01    0.111E+00
RMM:  28    -0.732509895306E+02   -0.28405E-01   -0.56318E-02  3130   0.500E-01    0.170E+00
RMM:  29    -0.732169465504E+02    0.34043E-01   -0.78768E-03  2604   0.276E-01    0.749E-01
RMM:  30    -0.732134887758E+02    0.34578E-02   -0.14326E-03  2489   0.119E-01    0.402E-01
RMM:  31    -0.732138017399E+02   -0.31296E-03   -0.43750E-04  2174   0.794E-02    0.343E-01
RMM:  32    -0.732128915695E+02    0.91017E-03   -0.67367E-04  2292   0.650E-02    0.654E-02
RMM:  33    -0.732135059405E+02   -0.61437E-03   -0.44719E-04  2324   0.604E-02    0.195E-01
RMM:  34    -0.732132128824E+02    0.29306E-03   -0.50777E-05  1661   0.469E-02    0.826E-02
RMM:  35    -0.732131934316E+02    0.19451E-04   -0.27586E-05  1468   0.283E-02    0.517E-02
RMM:  36    -0.732131854120E+02    0.80197E-05   -0.14170E-05  1372   0.224E-02
   2 F= -.76408859E+02 E0= -.76408943E+02  d E =0.431680E+01
       N       E                     dE             d eps       ncg     rms          rms(c)
DAV:   1    -0.732168199414E+02   -0.36265E-02   -0.33089E-01  2264   0.213E+00    0.189E-01
RMM:   2    -0.732197634656E+02   -0.29435E-02   -0.73594E-03  2637   0.371E-01    0.552E-01
RMM:   3    -0.732171769055E+02    0.25866E-02   -0.17619E-03  2569   0.160E-01    0.201E-01
RMM:   4    -0.732169388974E+02    0.23801E-03   -0.38673E-04  2279   0.111E-01    0.920E-02
RMM:   5    -0.732168307976E+02    0.10810E-03   -0.11832E-04  1849   0.698E-02    0.604E-02
RMM:   6    -0.732167895792E+02    0.41218E-04   -0.14755E-04  1886   0.629E-02    0.240E-02
RMM:   7    -0.732167859223E+02    0.36569E-05   -0.28914E-05  1501   0.374E-02
   3 F= -.76411845E+02 E0= -.76411991E+02  d E =0.431382E+01
       N       E                     dE             d eps       ncg     rms          rms(c)
DAV:   1    -0.695106697320E+02    0.37061E+01   -0.10929E+03  2072   0.111E+02    0.208E+01
RMM:   2    -0.759556602118E+02   -0.64450E+01   -0.18007E+02  3145   0.557E+01    0.106E+01
RMM:   3    -0.771912302569E+02   -0.12356E+01   -0.54914E+01  2929   0.300E+01    0.153E+01
RMM:   4    -0.704942916198E+02    0.66969E+01    0.65552E+00  3092   0.204E+01    0.119E+01
RMM:   5    -0.676079012595E+02    0.28864E+01    0.61612E+00  3221   0.121E+01    0.955E+00
RMM:   6    -0.664596894133E+02    0.11482E+01   -0.10182E+01  3255   0.113E+01    0.423E+00
RMM:   7    -0.664246932653E+02    0.34996E-01   -0.22770E+00  3118   0.792E+00    0.223E+00
RMM:   8    -0.663469762681E+02    0.77717E-01    0.26909E-01  3154   0.607E+00    0.112E+00
RMM:   9    -0.662316709644E+02    0.11531E+00    0.10956E+00  3161   0.517E+00    0.122E+00
RMM:  10    -0.661844952857E+02    0.47176E-01    0.49647E-01  3401   0.424E+00    0.148E+00
RMM:  11    -0.660750424537E+02    0.10945E+00    0.82780E-01  3366   0.389E+00    0.135E+00
RMM:  12    -0.659949358520E+02    0.80107E-01    0.25646E-02  3242   0.416E+00    0.479E-01
RMM:  13    -0.660133724283E+02   -0.18437E-01   -0.21555E-01  3180   0.326E+00    0.342E-01
RMM:  14    -0.660299047366E+02   -0.16532E-01   -0.16227E-01  3340   0.285E+00    0.546E-01
RMM:  15    -0.660369772535E+02   -0.70725E-02   -0.69142E-02  3278   0.264E+00    0.752E-01
RMM:  16    -0.660204147715E+02    0.16562E-01   -0.63129E-02  3257   0.258E+00    0.506E-01
RMM:  17    -0.660174679117E+02    0.29469E-02   -0.51711E-03  3320   0.230E+00    0.550E-01
RMM:  18    -0.660194442954E+02   -0.19764E-02   -0.37092E-02  3305   0.210E+00    0.609E-01
RMM:  19    -0.660233083535E+02   -0.38641E-02   -0.25809E-02  3204   0.200E+00    0.754E-01
RMM:  20    -0.660270372069E+02   -0.37289E-02   -0.46681E-02  3145   0.187E+00    0.841E-01
RMM:  21    -0.660294704539E+02   -0.24332E-02   -0.38930E-02  3047   0.178E+00    0.929E-01
RMM:  22    -0.660510128932E+02   -0.21542E-01   -0.82781E-02  3138   0.176E+00    0.116E+00
RMM:  23    -0.661343265544E+02   -0.83314E-01   -0.30645E-01  3313   0.193E+00    0.169E+00
RMM:  24    -0.661672758166E+02   -0.32949E-01   -0.17166E-01  3391   0.183E+00    0.199E+00
RMM:  25    -0.661779885108E+02   -0.10713E-01   -0.15782E-01  3302   0.167E+00    0.215E+00
RMM:  26    -0.661913423934E+02   -0.13354E-01   -0.16913E-01  3228   0.156E+00    0.233E+00
RMM:  27    -0.662355546872E+02   -0.44212E-01   -0.23144E-01  3287   0.153E+00    0.261E+00
RMM:  28    -0.662575836905E+02   -0.22029E-01   -0.17725E-01  3230   0.147E+00    0.284E+00
RMM:  29    -0.662731958727E+02   -0.15612E-01   -0.18708E-01  3051   0.139E+00    0.302E+00
RMM:  30    -0.663001464502E+02   -0.26951E-01   -0.18376E-01  3110   0.135E+00    0.323E+00
RMM:  31    -0.663254348585E+02   -0.25288E-01   -0.19278E-01  3108   0.130E+00    0.343E+00
RMM:  32    -0.663404543508E+02   -0.15019E-01   -0.17895E-01  2933   0.124E+00    0.360E+00
RMM:  33    -0.663544287616E+02   -0.13974E-01   -0.17893E-01  2798   0.119E+00    0.376E+00
RMM:  34    -0.663698924043E+02   -0.15464E-01   -0.16261E-01  2769   0.114E+00    0.391E+00
RMM:  35    -0.663826338011E+02   -0.12741E-01   -0.14559E-01  2746   0.110E+00    0.405E+00
RMM:  36    -0.663948411339E+02   -0.12207E-01   -0.12814E-01  2713   0.105E+00    0.418E+00
RMM:  37    -0.664039415513E+02   -0.91004E-02   -0.11211E-01  2700   0.101E+00    0.428E+00
RMM:  38    -0.664118321532E+02   -0.78906E-02   -0.96776E-02  2662   0.975E-01    0.438E+00
RMM:  39    -0.664191482155E+02   -0.73161E-02   -0.81640E-02  2654   0.939E-01    0.447E+00
RMM:  40    -0.664255299576E+02   -0.63817E-02   -0.70633E-02  2629   0.905E-01    0.455E+00
RMM:  41    -0.664311494220E+02   -0.56195E-02   -0.60194E-02  2616   0.873E-01    0.462E+00
RMM:  42    -0.664320329008E+02   -0.88348E-03   -0.47919E-02  2651   0.842E-01    0.468E+00
RMM:  43    -0.664349103758E+02   -0.28775E-02   -0.42724E-02  2601   0.812E-01    0.473E+00
RMM:  44    -0.664387874534E+02   -0.38771E-02   -0.40333E-02  2577   0.784E-01    0.479E+00
RMM:  45    -0.664405210801E+02   -0.17336E-02   -0.33352E-02  2569   0.756E-01    0.484E+00
RMM:  46    -0.664405166208E+02    0.44593E-05   -0.33686E-02  2578   0.731E-01    0.488E+00
RMM:  47    -0.664419054412E+02   -0.13888E-02   -0.34591E-02  2916   0.715E-01    0.492E+00
RMM:  48    -0.664262185425E+02    0.15687E-01   -0.22246E-02  3023   0.692E-01    0.492E+00
RMM:  49    -0.664716255605E+02   -0.45407E-01   -0.46512E-02  3115   0.694E-01    0.503E+00
RMM:  50    -0.664443416682E+02    0.27284E-01   -0.14312E-02  2952   0.659E-01    0.502E+00
RMM:  51    -0.664084180196E+02    0.35924E-01   -0.29256E-02  3204   0.649E-01    0.497E+00
RMM:  52    -0.663863572037E+02    0.22061E-01   -0.21762E-02  3207   0.623E-01    0.493E+00
RMM:  53    -0.663873061103E+02   -0.94891E-03   -0.35570E-02  3034   0.590E-01    0.495E+00
RMM:  54    -0.664139844865E+02   -0.26678E-01   -0.33991E-02  2883   0.568E-01    0.502E+00
RMM:  55    -0.664280556731E+02   -0.14071E-01   -0.31239E-02  2884   0.548E-01    0.507E+00
RMM:  56    -0.664202274540E+02    0.78282E-02   -0.20260E-02  2628   0.523E-01    0.509E+00
RMM:  57    -0.664134561726E+02    0.67713E-02   -0.21953E-02  2984   0.520E-01    0.509E+00
RMM:  58    -0.664457243032E+02   -0.32268E-01   -0.25775E-02  3076   0.519E-01    0.517E+00
RMM:  59    -0.664410443904E+02    0.46799E-02   -0.12550E-02  2746   0.486E-01    0.519E+00
RMM:  60    -0.664262940670E+02    0.14750E-01   -0.11397E-02  2771   0.471E-01    0.519E+00
RMM:  61    -0.663833273982E+02    0.42967E-01   -0.28162E-03  3218   0.485E-01    0.512E+00
RMM:  62    -0.659726686767E+02    0.41066E+00   -0.18912E-01  3480   0.110E+00    0.426E+00
RMM:  63    -0.659533199454E+02    0.19349E-01   -0.16079E-01  3433   0.740E-01    0.398E+00
RMM:  64    -0.659399182287E+02    0.13402E-01   -0.13228E-01  3307   0.615E-01    0.375E+00
RMM:  65    -0.659466785165E+02   -0.67603E-02   -0.10691E-01  3126   0.552E-01    0.358E+00
RMM:  66    -0.659529384688E+02   -0.62600E-02   -0.87176E-02  2981   0.499E-01    0.344E+00
RMM:  67    -0.659142183716E+02    0.38720E-01   -0.10879E-01  3374   0.550E-01    0.318E+00
RMM:  68    -0.658623964903E+02    0.51822E-01   -0.15164E-01  3436   0.638E-01    0.285E+00
RMM:  69    -0.658762831920E+02   -0.13887E-01   -0.11211E-01  3183   0.556E-01    0.270E+00
RMM:  70    -0.658865482827E+02   -0.10265E-01   -0.95753E-02  2958   0.501E-01    0.255E+00
RMM:  71    -0.658955120396E+02   -0.89638E-02   -0.72923E-02  2820   0.471E-01    0.244E+00
RMM:  72    -0.658254800874E+02    0.70032E-01   -0.16184E-01  3470   0.716E-01    0.200E+00
RMM:  73    -0.658831843957E+02   -0.57704E-01   -0.67586E-02  3374   0.593E-01    0.206E+00
RMM:  74    -0.659200807249E+02   -0.36896E-01   -0.44513E-02  3348   0.473E-01    0.210E+00
RMM:  75    -0.659285010503E+02   -0.84203E-02   -0.26408E-02  3108   0.365E-01    0.207E+00
RMM:  76    -0.659313503722E+02   -0.28493E-02   -0.23767E-02  2811   0.332E-01    0.202E+00
RMM:  77    -0.658138511868E+02    0.11750E+00   -0.23854E-01  3476   0.984E-01    0.124E+00
RMM:  78    -0.658458447470E+02   -0.31994E-01   -0.12788E-01  3450   0.705E-01    0.114E+00
RMM:  79    -0.658570325118E+02   -0.11188E-01   -0.11578E-01  3308   0.537E-01    0.966E-01
RMM:  80    -0.658660022934E+02   -0.89698E-02   -0.10421E-01  3136   0.502E-01    0.835E-01
RMM:  81    -0.658789748264E+02   -0.12973E-01   -0.76035E-02  3108   0.448E-01    0.762E-01
RMM:  82    -0.658828807234E+02   -0.39059E-02   -0.68939E-02  3010   0.435E-01    0.639E-01
RMM:  83    -0.658901605948E+02   -0.72799E-02   -0.54857E-02  2740   0.405E-01    0.581E-01
RMM:  84    -0.658945539884E+02   -0.43934E-02   -0.48045E-02  2740   0.388E-01    0.511E-01
RMM:  85    -0.659013567945E+02   -0.68028E-02   -0.35575E-02  3037   0.368E-01    0.512E-01
RMM:  86    -0.659058102524E+02   -0.44535E-02   -0.26521E-02  3148   0.334E-01    0.510E-01
RMM:  87    -0.659011332325E+02    0.46770E-02   -0.48626E-02  3456   0.497E-01    0.337E-01
RMM:  88    -0.659054371386E+02   -0.43039E-02   -0.41697E-02  3181   0.422E-01    0.308E-01
RMM:  89    -0.659092706095E+02   -0.38335E-02   -0.37370E-02  3023   0.387E-01    0.286E-01
RMM:  90    -0.659137406760E+02   -0.44701E-02   -0.25634E-02  3230   0.377E-01    0.331E-01
RMM:  91    -0.659155764245E+02   -0.18357E-02   -0.18441E-02  2861   0.314E-01    0.332E-01
RMM:  92    -0.659182153357E+02   -0.26389E-02   -0.20848E-02  3274   0.315E-01    0.349E-01
RMM:  93    -0.659194656714E+02   -0.12503E-02   -0.14913E-02  2976   0.277E-01    0.346E-01
RMM:  94    -0.659226699260E+02   -0.32043E-02   -0.19102E-02  3197   0.270E-01    0.377E-01
RMM:  95    -0.659211604951E+02    0.15094E-02   -0.11856E-02  3218   0.310E-01    0.337E-01
RMM:  96    -0.659234328164E+02   -0.22723E-02   -0.15531E-02  2822   0.264E-01    0.356E-01
RMM:  97    -0.659278175195E+02   -0.43847E-02   -0.19317E-02  3431   0.298E-01    0.423E-01
RMM:  98    -0.659300453420E+02   -0.22278E-02   -0.16831E-02  3274   0.234E-01    0.445E-01
RMM:  99    -0.659323780839E+02   -0.23327E-02   -0.22878E-02  3440   0.289E-01    0.418E-01
RMM: 100    -0.659343626803E+02   -0.19846E-02   -0.19023E-02  3388   0.253E-01
   4 F= -.69196704E+02 E0= -.69190807E+02  d E =0.721514E+01
       N       E                     dE             d eps       ncg     rms          rms(c)
DAV:   1    -0.739610166371E+02   -0.80286E+01   -0.19106E+02  2416   0.490E+01    0.587E+00
RMM:   2    -0.773329821388E+02   -0.33720E+01   -0.94701E+00  2495   0.150E+01    0.122E+01
RMM:   3    -0.738027174952E+02    0.35303E+01   -0.37723E+00  2452   0.856E+00    0.356E+00
RMM:   4    -0.741042587994E+02   -0.30154E+00   -0.92512E-01  2589   0.332E+00    0.813E+00
RMM:   5    -0.739655281636E+02    0.13873E+00   -0.20294E-01  2874   0.143E+00    0.773E+00
RMM:   6    -0.736128310663E+02    0.35270E+00   -0.14843E-01  2523   0.162E+00    0.173E+00
RMM:   7    -0.736962620235E+02   -0.83431E-01   -0.11536E-01  2640   0.135E+00    0.313E+00
RMM:   8    -0.736239432740E+02    0.72319E-01   -0.28013E-02  2619   0.714E-01    0.107E+00
RMM:   9    -0.736286830196E+02   -0.47397E-02   -0.16101E-02  2671   0.486E-01    0.969E-01
RMM:  10    -0.736283408440E+02    0.34218E-03   -0.45256E-03  2774   0.248E-01    0.263E-01
RMM:  11    -0.736320561269E+02   -0.37153E-02   -0.20780E-03  2684   0.133E-01    0.871E-01
RMM:  12    -0.736285929051E+02    0.34632E-02   -0.68954E-04  2409   0.113E-01    0.487E-02
RMM:  13    -0.736295724357E+02   -0.97953E-03   -0.32223E-04  2052   0.742E-02    0.112E-01
RMM:  14    -0.736301796704E+02   -0.60723E-03   -0.35833E-04  2167   0.627E-02    0.197E-01
RMM:  15    -0.736301706201E+02    0.90503E-05   -0.12418E-04  1913   0.563E-02    0.134E-02
RMM:  16    -0.736303738655E+02   -0.20325E-03   -0.59893E-05  1706   0.316E-02    0.631E-02
RMM:  17    -0.736304459878E+02   -0.72122E-04   -0.58951E-05  1687   0.271E-02    0.112E-02
RMM:  18    -0.736304662248E+02   -0.20237E-04   -0.14574E-05  1414   0.244E-02    0.167E-03
RMM:  19    -0.736304720970E+02   -0.58722E-05   -0.62708E-06  1305   0.145E-02
   5 F= -.76835493E+02 E0= -.76825381E+02  d E =-.423648E+00
       N       E                     dE             d eps       ncg     rms          rms(c)
DAV:   1    -0.749164214822E+02   -0.12860E+01   -0.81979E+01  2080   0.348E+01    0.492E+00
RMM:   2    -0.788061809200E+02   -0.38898E+01   -0.26017E+00  2516   0.649E+00    0.147E+01
RMM:   3    -0.749157492612E+02    0.38904E+01   -0.15154E+00  2444   0.557E+00    0.338E+00
RMM:   4    -0.748546566492E+02    0.61093E-01   -0.22563E-01  2492   0.216E+00    0.162E+00
RMM:   5    -0.748172172175E+02    0.37439E-01   -0.53906E-02  2507   0.108E+00    0.113E+00
RMM:   6    -0.748165512239E+02    0.66599E-03   -0.13294E-02  2665   0.461E-01    0.940E-01
RMM:   7    -0.748108780701E+02    0.56732E-02   -0.41316E-02  2611   0.773E-01    0.607E-01
RMM:   8    -0.748093592289E+02    0.15188E-02   -0.55321E-03  2332   0.392E-01    0.223E-01
RMM:   9    -0.748093149079E+02    0.44321E-04   -0.12692E-03  2613   0.152E-01    0.244E-01
RMM:  10    -0.748088956232E+02    0.41928E-03   -0.70313E-04  2490   0.944E-02    0.121E-01
RMM:  11    -0.748088606997E+02    0.34924E-04   -0.87896E-04  2515   0.104E-01    0.517E-02
RMM:  12    -0.748088855536E+02   -0.24854E-04   -0.81197E-05  1852   0.429E-02    0.382E-02
RMM:  13    -0.748088787308E+02    0.68228E-05   -0.37664E-05  1526   0.336E-02
   6 F= -.78005905E+02 E0= -.78000114E+02  d E =-.159406E+01
       N       E                     dE             d eps       ncg     rms          rms(c)
DAV:   1    -0.749242813980E+02   -0.11540E+00   -0.19037E+02  2016   0.532E+01    0.696E+00
RMM:   2    -0.781134426565E+02   -0.31892E+01   -0.49932E+00  2444   0.983E+00    0.153E+01
RMM:   3    -0.757049729119E+02    0.24085E+01   -0.36549E+00  2509   0.801E+00    0.564E+00
RMM:   4    -0.752314864039E+02    0.47349E+00   -0.39746E-01  2515   0.276E+00    0.443E+00
RMM:   5    -0.750714242428E+02    0.16006E+00   -0.20759E-01  2514   0.188E+00    0.352E+00
RMM:   6    -0.749897730892E+02    0.81651E-01   -0.35993E-01  2632   0.192E+00    0.505E+00
RMM:   7    -0.749635898141E+02    0.26183E-01   -0.27880E-02  2727   0.573E-01    0.480E+00
RMM:   8    -0.749376949585E+02    0.25895E-01   -0.53541E-03  2501   0.312E-01    0.446E+00
RMM:   9    -0.748580153819E+02    0.79680E-01   -0.23256E-02  2681   0.452E-01    0.209E+00
RMM:  10    -0.748658311440E+02   -0.78158E-02   -0.67858E-02  3000   0.886E-01    0.114E+00
RMM:  11    -0.748639667943E+02    0.18643E-02   -0.89961E-03  2319   0.394E-01    0.577E-01
RMM:  12    -0.748622586725E+02    0.17081E-02   -0.18358E-03  2401   0.172E-01    0.501E-01
RMM:  13    -0.748608885193E+02    0.13702E-02   -0.33592E-03  2616   0.228E-01    0.381E-01
RMM:  14    -0.748607430829E+02    0.14544E-03   -0.78954E-04  2480   0.971E-02    0.361E-01
RMM:  15    -0.748602302483E+02    0.51283E-03   -0.47708E-04  2373   0.939E-02    0.246E-01
RMM:  16    -0.748598991248E+02    0.33112E-03   -0.26934E-03  2972   0.176E-01    0.299E-02
RMM:  17    -0.748600355079E+02   -0.13638E-03   -0.17707E-04  2217   0.473E-02    0.486E-02
RMM:  18    -0.748600568214E+02   -0.21313E-04   -0.30248E-05  1480   0.476E-02    0.232E-02
RMM:  19    -0.748600978836E+02   -0.41062E-04   -0.89798E-06  1261   0.214E-02    0.211E-02
RMM:  20    -0.748601090019E+02   -0.11118E-04   -0.14112E-05  1353   0.179E-02    0.990E-03
RMM:  21    -0.748601330985E+02   -0.24097E-04   -0.97910E-06  1270   0.218E-02    0.134E-02
RMM:  22    -0.748601661099E+02   -0.33011E-04   -0.31009E-05  1535   0.236E-02    0.125E-02
RMM:  23    -0.748601708919E+02   -0.47820E-05   -0.57389E-06  1260   0.209E-02
   7 F= -.78056210E+02 E0= -.78055505E+02  d E =-.164437E+01
       N       E                     dE             d eps       ncg     rms          rms(c)
DAV:   1    -0.757274223415E+02   -0.86726E+00   -0.66786E+01  2000   0.295E+01    0.887E+00
RMM:   2    -0.816685706755E+02   -0.59411E+01   -0.20541E+01  2655   0.134E+01    0.101E+01
RMM:   3    -0.772546079931E+02    0.44140E+01   -0.34242E+00  2441   0.813E+00    0.764E+00
RMM:   4    -0.760787175360E+02    0.11759E+01   -0.11157E+00  2331   0.512E+00    0.580E+00
RMM:   5    -0.753343568324E+02    0.74436E+00   -0.95750E-01  2645   0.257E+00    0.343E+00
RMM:   6    -0.752980080776E+02    0.36349E-01   -0.10859E-01  2701   0.104E+00    0.316E+00
RMM:   7    -0.751997309723E+02    0.98277E-01   -0.10753E-01  2528   0.988E-01    0.143E+00
RMM:   8    -0.751999304744E+02   -0.19950E-03   -0.18684E-02  2751   0.533E-01    0.106E+00
RMM:   9    -0.752484195417E+02   -0.48489E-01   -0.36738E-02  2801   0.521E-01    0.327E+00
RMM:  10    -0.752001949737E+02    0.48225E-01   -0.30365E-03  2360   0.226E-01    0.180E+00
RMM:  11    -0.751963634158E+02    0.38316E-02   -0.25504E-03  2668   0.213E-01    0.126E+00
RMM:  12    -0.751944837169E+02    0.18797E-02   -0.52945E-04  2482   0.110E-01    0.897E-01
RMM:  13    -0.751954206823E+02   -0.93697E-03   -0.16654E-04  2204   0.704E-02    0.866E-01
RMM:  14    -0.751917215305E+02    0.36992E-02   -0.10482E-03  2520   0.874E-02    0.800E-02
RMM:  15    -0.751928715156E+02   -0.11500E-02   -0.28726E-04  1968   0.917E-02    0.920E-02
RMM:  16    -0.751929012370E+02   -0.29721E-04   -0.49957E-05  1688   0.423E-02    0.524E-02
RMM:  17    -0.751929351681E+02   -0.33931E-04   -0.20892E-05  1382   0.324E-02    0.107E-02
RMM:  18    -0.751929800659E+02   -0.44898E-04   -0.22547E-05  1397   0.267E-02    0.370E-02
RMM:  19    -0.751930063564E+02   -0.26290E-04   -0.14575E-05  1358   0.251E-02    0.463E-02
RMM:  20    -0.751930045218E+02    0.18347E-05   -0.65896E-06  1268   0.186E-02
   8 F= -.78389662E+02 E0= -.78386454E+02  d E =-.197782E+01
       N       E                     dE             d eps       ncg     rms          rms(c)
DAV:   1    -0.752473806513E+02   -0.54374E-01   -0.40374E+00  2048   0.757E+00    0.218E+00
RMM:   2    -0.769804200847E+02   -0.17330E+01   -0.55915E-01  2594   0.233E+00    0.120E+01
RMM:   3    -0.751820273557E+02    0.17984E+01   -0.37240E-01  2425   0.239E+00    0.586E-01
RMM:   4    -0.752187447617E+02   -0.36717E-01   -0.55674E-02  2573   0.957E-01    0.462E-01
RMM:   5    -0.752152965379E+02    0.34482E-02   -0.99859E-03  2636   0.423E-01    0.303E-01
RMM:   6    -0.752150573355E+02    0.23920E-03   -0.21792E-03  2645   0.155E-01    0.207E-01
RMM:   7    -0.752151480573E+02   -0.90722E-04   -0.27342E-03  2522   0.193E-01    0.127E-01
RMM:   8    -0.752150680955E+02    0.79962E-04   -0.28248E-04  2194   0.104E-01    0.944E-02
RMM:   9    -0.752149988154E+02    0.69280E-04   -0.12322E-04  1978   0.414E-02    0.641E-02
RMM:  10    -0.752149692455E+02    0.29570E-04   -0.26544E-04  2043   0.624E-02    0.207E-02
RMM:  11    -0.752149760218E+02   -0.67763E-05   -0.33541E-05  1520   0.306E-02
   9 F= -.78411523E+02 E0= -.78409000E+02  d E =-.199968E+01
       N       E                     dE             d eps       ncg     rms          rms(c)
DAV:   1    -0.770814028782E+02   -0.18664E+01   -0.19928E+01  2000   0.171E+01    0.244E+00
RMM:   2    -0.773503586486E+02   -0.26896E+00   -0.20734E+00  2293   0.105E+01    0.422E+00
RMM:   3    -0.771061156352E+02    0.24424E+00   -0.10134E+00  2672   0.374E+00    0.364E+00
RMM:   4    -0.770567378241E+02    0.49378E-01   -0.13898E-01  2616   0.166E+00    0.208E+00
RMM:   5    -0.770395210766E+02    0.17217E-01   -0.76578E-02  2530   0.130E+00    0.105E+00
RMM:   6    -0.770270781375E+02    0.12443E-01   -0.39381E-02  2406   0.115E+00    0.934E-01
RMM:   7    -0.770209686003E+02    0.61095E-02   -0.12936E-02  2469   0.616E-01    0.224E-01
RMM:   8    -0.770210265733E+02   -0.57973E-04   -0.34041E-03  2487   0.273E-01    0.872E-02
RMM:   9    -0.770211016808E+02   -0.75108E-04   -0.10295E-03  2626   0.123E-01    0.886E-02
RMM:  10    -0.770210861243E+02    0.15556E-04   -0.28156E-04  2333   0.704E-02    0.641E-02
RMM:  11    -0.770210763363E+02    0.97881E-05   -0.13431E-04  2097   0.484E-02    0.102E-02
RMM:  12    -0.770210913916E+02   -0.15055E-04   -0.21365E-05  1461   0.294E-02    0.595E-03
RMM:  13    -0.770210967283E+02   -0.53367E-05   -0.90162E-06  1312   0.206E-02
  10 F= -.80199334E+02 E0= -.80199356E+02  d E =-.178781E+01
       N       E                     dE             d eps       ncg     rms          rms(c)
DAV:   1    -0.775488971519E+02   -0.52781E+00   -0.92567E+00  2000   0.110E+01    0.144E+00
RMM:   2    -0.776578744398E+02   -0.10898E+00   -0.83259E-01  2324   0.655E+00    0.267E+00
RMM:   3    -0.775891199077E+02    0.68755E-01   -0.39141E-01  2669   0.227E+00    0.247E+00
RMM:   4    -0.775560177407E+02    0.33102E-01   -0.59214E-02  2641   0.109E+00    0.982E-01
RMM:   5    -0.775527219865E+02    0.32958E-02   -0.26160E-02  2542   0.752E-01    0.554E-01
RMM:   6    -0.775473016379E+02    0.54203E-02   -0.10964E-02  2406   0.635E-01    0.229E-01
RMM:   7    -0.775471618241E+02    0.13981E-03   -0.55737E-03  2694   0.296E-01    0.127E-01
RMM:   8    -0.775468823734E+02    0.27945E-03   -0.61575E-04  2190   0.176E-01    0.450E-02
RMM:   9    -0.775468996107E+02   -0.17237E-04   -0.52184E-04  2453   0.818E-02    0.250E-02
RMM:  10    -0.775469103272E+02   -0.10717E-04   -0.10639E-04  1903   0.452E-02    0.227E-02
RMM:  11    -0.775469115843E+02   -0.12571E-05   -0.43462E-05  1561   0.359E-02
  11 F= -.80709283E+02 E0= -.80710246E+02  d E =-.229776E+01
       N       E                     dE             d eps       ncg     rms          rms(c)
DAV:   1    -0.774079530014E+02    0.13896E+00   -0.34454E+01  2168   0.239E+01    0.248E+00
RMM:   2    -0.778053405152E+02   -0.39739E+00   -0.41103E+00  2661   0.111E+01    0.307E+00
RMM:   3    -0.775680134121E+02    0.23733E+00   -0.51362E-01  2496   0.381E+00    0.324E+00
RMM:   4    -0.775005931913E+02    0.67420E-01   -0.19942E-01  2697   0.170E+00    0.147E+00
RMM:   5    -0.774818796776E+02    0.18714E-01   -0.61472E-02  2565   0.112E+00    0.711E-01
RMM:   6    -0.774723520238E+02    0.95277E-02   -0.21010E-02  2467   0.841E-01    0.317E-01
RMM:   7    -0.774717160157E+02    0.63601E-03   -0.12112E-02  2702   0.450E-01    0.165E-01
RMM:   8    -0.774714369485E+02    0.27907E-03   -0.18103E-03  2383   0.208E-01    0.547E-02
RMM:   9    -0.774714626500E+02   -0.25702E-04   -0.82989E-04  2633   0.108E-01    0.287E-02
RMM:  10    -0.774714804017E+02   -0.17752E-04   -0.19513E-04  2159   0.553E-02    0.163E-02
RMM:  11    -0.774714963836E+02   -0.15982E-04   -0.59792E-05  1695   0.304E-02    0.412E-03
RMM:  12    -0.774715093142E+02   -0.12931E-04   -0.11075E-05  1298   0.254E-02    0.252E-03
RMM:  13    -0.774715197155E+02   -0.10401E-04   -0.53295E-06  1260   0.157E-02    0.305E-03
RMM:  14    -0.774715335375E+02   -0.13822E-04   -0.38295E-06  1260   0.167E-02    0.251E-03
RMM:  15    -0.774715442441E+02   -0.10707E-04   -0.24824E-06  1227   0.928E-03    0.946E-04
RMM:  16    -0.774715544823E+02   -0.10238E-04   -0.20356E-06  1236   0.105E-02    0.223E-03
RMM:  17    -0.774715583572E+02   -0.38749E-05   -0.13451E-06  1182   0.833E-03
  12 F= -.80606527E+02 E0= -.80608231E+02  d E =-.219500E+01
       N       E                     dE             d eps       ncg     rms          rms(c)
DAV:   1    -0.776357384256E+02   -0.16418E+00   -0.94144E+00  2064   0.116E+01    0.112E+00
RMM:   2    -0.777238548960E+02   -0.88116E-01   -0.60376E-01  2651   0.423E+00    0.225E+00
RMM:   3    -0.776744491221E+02    0.49406E-01   -0.90859E-02  2710   0.126E+00    0.126E+00
RMM:   4    -0.776665746740E+02    0.78744E-02   -0.34481E-02  2627   0.814E-01    0.463E-01
RMM:   5    -0.776616681560E+02    0.49065E-02   -0.10110E-02  2506   0.497E-01    0.274E-01
RMM:   6    -0.776599101204E+02    0.17580E-02   -0.50846E-03  2498   0.383E-01    0.161E-01
RMM:   7    -0.776593609307E+02    0.54919E-03   -0.12592E-03  2253   0.230E-01    0.595E-02
RMM:   8    -0.776593831333E+02   -0.22203E-04   -0.75706E-04  2466   0.821E-02    0.206E-02
RMM:   9    -0.776593932796E+02   -0.10146E-04   -0.14787E-04  1928   0.628E-02    0.103E-02
RMM:  10    -0.776594004273E+02   -0.71477E-05   -0.45515E-05  1619   0.235E-02
  13 F= -.80807664E+02 E0= -.80808924E+02  d E =-.239614E+01
       N       E                     dE             d eps       ncg     rms          rms(c)
DAV:   1    -0.776608435639E+02   -0.14503E-02   -0.15146E-01  2384   0.136E+00    0.154E-01
RMM:   2    -0.776624171405E+02   -0.15736E-02   -0.98669E-03  2578   0.554E-01    0.301E-01
RMM:   3    -0.776613397882E+02    0.10774E-02   -0.17445E-03  2657   0.185E-01    0.200E-01
RMM:   4    -0.776611587678E+02    0.18102E-03   -0.71162E-04  2534   0.123E-01    0.732E-02
RMM:   5    -0.776610701601E+02    0.88608E-04   -0.19382E-04  2240   0.699E-02    0.353E-02
RMM:   6    -0.776610396580E+02    0.30502E-04   -0.66766E-05  1827   0.555E-02    0.188E-02
RMM:   7    -0.776610350101E+02    0.46479E-05   -0.26299E-05  1476   0.327E-02
  14 F= -.80811195E+02 E0= -.80812421E+02  d E =-.239967E+01
       N       E                     dE             d eps       ncg     rms          rms(c)
DAV:   1    -0.778547493970E+02   -0.19371E+00   -0.30020E+00  2000   0.682E+00    0.117E+00
RMM:   2    -0.781728885970E+02   -0.31814E+00   -0.29537E-01  2616   0.265E+00    0.579E+00
RMM:   3    -0.778400862377E+02    0.33280E+00   -0.10882E-01  2610   0.128E+00    0.490E-01
RMM:   4    -0.778562148508E+02   -0.16129E-01   -0.17465E-02  2672   0.560E-01    0.277E-01
RMM:   5    -0.778551663127E+02    0.10485E-02   -0.40135E-03  2637   0.272E-01    0.155E-01
RMM:   6    -0.778548129564E+02    0.35336E-03   -0.14342E-03  2538   0.178E-01    0.127E-01
RMM:   7    -0.778546513064E+02    0.16165E-03   -0.39453E-04  2242   0.129E-01    0.635E-02
RMM:   8    -0.778546332453E+02    0.18061E-04   -0.17530E-04  2150   0.549E-02    0.155E-02
RMM:   9    -0.778546412795E+02   -0.80341E-05   -0.42254E-05  1637   0.299E-02
  15 F= -.80996240E+02 E0= -.80997982E+02  d E =-.185045E+00
       N       E                     dE             d eps       ncg     rms          rms(c)
DAV:   1    -0.779969852277E+02   -0.14235E+00   -0.12634E+01  2000   0.143E+01    0.207E+00
RMM:   2    -0.786002887535E+02   -0.60330E+00   -0.10469E+00  2599   0.528E+00    0.685E+00
RMM:   3    -0.780045179513E+02    0.59577E+00   -0.31708E-01  2634   0.227E+00    0.998E-01
RMM:   4    -0.780138038172E+02   -0.92859E-02   -0.44022E-02  2590   0.101E+00    0.571E-01
RMM:   5    -0.780078101064E+02    0.59937E-02   -0.12840E-02  2658   0.485E-01    0.305E-01
RMM:   6    -0.780068072167E+02    0.10029E-02   -0.69881E-03  2564   0.373E-01    0.266E-01
RMM:   7    -0.780060287594E+02    0.77846E-03   -0.13703E-03  2251   0.248E-01    0.950E-02
RMM:   8    -0.780060343307E+02   -0.55713E-05   -0.66599E-04  2589   0.913E-02    0.265E-02
RMM:   9    -0.780060624259E+02   -0.28095E-04   -0.14875E-04  2008   0.528E-02    0.147E-02
RMM:  10    -0.780060711154E+02   -0.86894E-05   -0.47707E-05  1629   0.358E-02
  16 F= -.81131677E+02 E0= -.81134399E+02  d E =-.320481E+00
       N       E                     dE             d eps       ncg     rms          rms(c)
DAV:   1    -0.780552334221E+02   -0.49171E-01   -0.15563E-01  2528   0.153E+00    0.135E-01
RMM:   2    -0.780558534849E+02   -0.62006E-03   -0.82955E-03  2459   0.575E-01    0.136E-01
RMM:   3    -0.780561185827E+02   -0.26510E-03   -0.23354E-03  2651   0.184E-01    0.166E-01
RMM:   4    -0.780557857655E+02    0.33282E-03   -0.34376E-04  2441   0.865E-02    0.446E-02
RMM:   5    -0.780558099484E+02   -0.24183E-04   -0.16941E-04  2166   0.627E-02    0.306E-02
RMM:   6    -0.780557904393E+02    0.19509E-04   -0.73607E-05  1860   0.474E-02    0.173E-02
RMM:   7    -0.780557820877E+02    0.83515E-05   -0.19327E-05  1385   0.359E-02
  17 F= -.81179179E+02 E0= -.81182012E+02  d E =-.475021E-01
       N       E                     dE             d eps       ncg     rms          rms(c)
DAV:   1    -0.781758408437E+02   -0.12005E+00   -0.13928E+00  2000   0.458E+00    0.406E-01
RMM:   2    -0.781818381569E+02   -0.59973E-02   -0.77284E-02  2434   0.181E+00    0.422E-01
RMM:   3    -0.781839273282E+02   -0.20892E-02   -0.23270E-02  2687   0.579E-01    0.448E-01
RMM:   4    -0.781814975889E+02    0.24297E-02   -0.31225E-03  2696   0.240E-01    0.141E-01
RMM:   5    -0.781816317328E+02   -0.13414E-03   -0.17811E-03  2580   0.179E-01    0.102E-01
RMM:   6    -0.781812366214E+02    0.39511E-03   -0.70809E-04  2568   0.130E-01    0.459E-02
RMM:   7    -0.781811759014E+02    0.60720E-04   -0.15829E-04  2099   0.882E-02    0.158E-02
RMM:   8    -0.781811826267E+02   -0.67253E-05   -0.83842E-05  1825   0.375E-02
  18 F= -.81298073E+02 E0= -.81301236E+02  d E =-.166396E+00
       N       E                     dE             d eps       ncg     rms          rms(c)
DAV:   1    -0.783047181359E+02   -0.12354E+00   -0.55586E+00  2000   0.928E+00    0.832E-01
RMM:   2    -0.783322384109E+02   -0.27520E-01   -0.34579E-01  2490   0.369E+00    0.816E-01
RMM:   3    -0.783378906893E+02   -0.56523E-02   -0.89626E-02  2683   0.114E+00    0.746E-01
RMM:   4    -0.783308578926E+02    0.70328E-02   -0.11498E-02  2686   0.467E-01    0.288E-01
RMM:   5    -0.783306315088E+02    0.22638E-03   -0.69327E-03  2624   0.345E-01    0.203E-01
RMM:   6    -0.783290501222E+02    0.15814E-02   -0.26121E-03  2568   0.255E-01    0.784E-02
RMM:   7    -0.783289255804E+02    0.12454E-03   -0.55480E-04  2252   0.151E-01    0.309E-02
RMM:   8    -0.783289366297E+02   -0.11049E-04   -0.26626E-04  2322   0.673E-02    0.152E-02
RMM:   9    -0.783289464820E+02   -0.98523E-05   -0.61041E-05  1713   0.341E-02
  19 F= -.81432823E+02 E0= -.81436470E+02  d E =-.301146E+00
       N       E                     dE             d eps       ncg     rms          rms(c)
DAV:   1    -0.781092848801E+02    0.21965E+00   -0.22449E+01  2056   0.195E+01    0.181E+00
RMM:   2    -0.782316039181E+02   -0.12232E+00   -0.16274E+00  2650   0.719E+00    0.119E+00
RMM:   3    -0.782321742740E+02   -0.57036E-03   -0.23263E-01  2675   0.208E+00    0.959E-01
RMM:   4    -0.782213975000E+02    0.10777E-01   -0.36650E-02  2709   0.759E-01    0.476E-01
RMM:   5    -0.782261679664E+02   -0.47705E-02   -0.26173E-02  2693   0.610E-01    0.401E-01
RMM:   6    -0.782175368606E+02    0.86311E-02   -0.86070E-03  2484   0.463E-01    0.124E-01
RMM:   7    -0.782171724119E+02    0.36445E-03   -0.18717E-03  2333   0.248E-01    0.500E-02
RMM:   8    -0.782172162174E+02   -0.43805E-04   -0.79125E-04  2568   0.895E-02    0.242E-02
RMM:   9    -0.782172507872E+02   -0.34570E-04   -0.19663E-04  2088   0.569E-02    0.122E-02
RMM:  10    -0.782172636914E+02   -0.12904E-04   -0.51434E-05  1686   0.340E-02    0.718E-03
RMM:  11    -0.782172785046E+02   -0.14813E-04   -0.12644E-05  1324   0.238E-02    0.382E-03
RMM:  12    -0.782172979890E+02   -0.19484E-04   -0.59309E-06  1269   0.189E-02    0.256E-03
RMM:  13    -0.782173221944E+02   -0.24205E-04   -0.44411E-06  1264   0.134E-02    0.230E-03
RMM:  14    -0.782173365593E+02   -0.14365E-04   -0.31401E-06  1263   0.138E-02    0.206E-03
RMM:  15    -0.782173570167E+02   -0.20457E-04   -0.36114E-06  1260   0.105E-02    0.164E-03
RMM:  16    -0.782173650206E+02   -0.80039E-05   -0.21546E-06  1247   0.989E-03
  20 F= -.81303016E+02 E0= -.81306176E+02  d E =-.171339E+00
       N       E                     dE             d eps       ncg     rms          rms(c)
DAV:   1    -0.782911568241E+02   -0.73800E-01   -0.12880E+01  2016   0.143E+01    0.133E+00
RMM:   2    -0.783751198819E+02   -0.83963E-01   -0.91092E-01  2641   0.549E+00    0.130E+00
RMM:   3    -0.783703723966E+02    0.47475E-02   -0.15805E-01  2684   0.158E+00    0.102E+00
RMM:   4    -0.783562317575E+02    0.14141E-01   -0.26138E-02  2697   0.723E-01    0.479E-01
RMM:   5    -0.783553203351E+02    0.91142E-03   -0.14334E-02  2508   0.588E-01    0.300E-01
RMM:   6    -0.783533279369E+02    0.19924E-02   -0.69084E-03  2540   0.419E-01    0.193E-01
RMM:   7    -0.783524510169E+02    0.87692E-03   -0.21521E-03  2495   0.218E-01    0.617E-02
RMM:   8    -0.783524536222E+02   -0.26053E-05   -0.74608E-04  2533   0.107E-01    0.301E-02
RMM:   9    -0.783524632307E+02   -0.96085E-05   -0.12730E-04  2029   0.419E-02    0.962E-03
RMM:  10    -0.783524779989E+02   -0.14768E-04   -0.36248E-05  1570   0.305E-02    0.384E-03
RMM:  11    -0.783524848781E+02   -0.68792E-05   -0.95225E-06  1290   0.241E-02
  21 F= -.81450828E+02 E0= -.81454570E+02  d E =-.319152E+00
       N       E                     dE             d eps       ncg     rms          rms(c)
DAV:   1    -0.783940662836E+02   -0.41588E-01   -0.19700E-01  2368   0.162E+00    0.431E-01
RMM:   2    -0.784109951771E+02   -0.16929E-01   -0.36097E-02  2706   0.683E-01    0.105E+00
RMM:   3    -0.783919205247E+02    0.19075E-01   -0.10193E-02  2528   0.402E-01    0.177E-01
RMM:   4    -0.783920115713E+02   -0.91047E-04   -0.22039E-03  2571   0.199E-01    0.116E-01
RMM:   5    -0.783919526132E+02    0.58958E-04   -0.64764E-04  2461   0.966E-02    0.440E-02
RMM:   6    -0.783919618704E+02   -0.92573E-05   -0.23389E-04  2181   0.795E-02    0.172E-02
RMM:   7    -0.783919509430E+02    0.10927E-04   -0.35291E-05  1580   0.408E-02    0.110E-02
RMM:   8    -0.783919514927E+02   -0.54966E-06   -0.18190E-05  1445   0.213E-02
  22 F= -.81489028E+02 E0= -.81492773E+02  d E =-.381993E-01
       N       E                     dE             d eps       ncg     rms          rms(c)
DAV:   1    -0.784492149954E+02   -0.57264E-01   -0.11476E+00  2000   0.396E+00    0.101E+00
RMM:   2    -0.785335377262E+02   -0.84323E-01   -0.20846E-01  2707   0.165E+00    0.210E+00
RMM:   3    -0.784406230958E+02    0.92915E-01   -0.51803E-02  2555   0.916E-01    0.514E-01
RMM:   4    -0.784390728268E+02    0.15503E-02   -0.12211E-02  2607   0.459E-01    0.323E-01
RMM:   5    -0.784384714159E+02    0.60141E-03   -0.45902E-03  2711   0.228E-01    0.145E-01
RMM:   6    -0.784384074072E+02    0.64009E-04   -0.17858E-03  2414   0.186E-01    0.556E-02
RMM:   7    -0.784383436319E+02    0.63775E-04   -0.22397E-04  2125   0.102E-01    0.505E-02
RMM:   8    -0.784383217337E+02    0.21898E-04   -0.15968E-04  2059   0.383E-02    0.122E-02
RMM:   9    -0.784383273131E+02   -0.55794E-05   -0.31488E-05  1595   0.341E-02
  23 F= -.81532376E+02 E0= -.81536114E+02  d E =-.815476E-01
       N       E                     dE             d eps       ncg     rms          rms(c)
DAV:   1    -0.784401021337E+02   -0.17804E-02   -0.31302E-02  2400   0.657E-01    0.150E-01
RMM:   2    -0.784420220209E+02   -0.19199E-02   -0.44837E-03  2709   0.260E-01    0.367E-01
RMM:   3    -0.784397987979E+02    0.22232E-02   -0.12272E-03  2495   0.145E-01    0.571E-02
RMM:   4    -0.784398745649E+02   -0.75767E-04   -0.26322E-04  2184   0.724E-02    0.401E-02
RMM:   5    -0.784398604619E+02    0.14103E-04   -0.58603E-05  1774   0.411E-02    0.155E-02
RMM:   6    -0.784398617203E+02   -0.12584E-05   -0.25203E-05  1444   0.358E-02
  24 F= -.81533417E+02 E0= -.81537158E+02  d E =-.825885E-01
       N       E                     dE             d eps       ncg     rms          rms(c)
DAV:   1    -0.784617339518E+02   -0.21873E-01   -0.38209E-01  2048   0.258E+00    0.187E-01
RMM:   2    -0.784629960643E+02   -0.12621E-02   -0.10354E-02  2590   0.550E-01    0.182E-01
RMM:   3    -0.784628253628E+02    0.17070E-03   -0.19932E-03  2600   0.189E-01    0.135E-01
RMM:   4    -0.784625606350E+02    0.26473E-03   -0.29929E-04  2259   0.877E-02    0.644E-02
RMM:   5    -0.784625365666E+02    0.24068E-04   -0.86655E-05  1792   0.546E-02    0.453E-02
RMM:   6    -0.784625316101E+02    0.49565E-05   -0.63188E-05  1721   0.361E-02
  25 F= -.81554987E+02 E0= -.81558769E+02  d E =-.215700E-01
       N       E                     dE             d eps       ncg     rms          rms(c)
DAV:   1    -0.785137797377E+02   -0.51243E-01   -0.34682E+00  2000   0.775E+00    0.525E-01
RMM:   2    -0.785231061177E+02   -0.93264E-02   -0.86163E-02  2547   0.160E+00    0.418E-01
RMM:   3    -0.785235603172E+02   -0.45420E-03   -0.16902E-02  2683   0.550E-01    0.386E-01
RMM:   4    -0.785211716211E+02    0.23887E-02   -0.23402E-03  2553   0.234E-01    0.180E-01
RMM:   5    -0.785209949240E+02    0.17670E-03   -0.87315E-04  2361   0.156E-01    0.118E-01
RMM:   6    -0.785208917002E+02    0.10322E-03   -0.54267E-04  2465   0.946E-02    0.233E-02
RMM:   7    -0.785208948656E+02   -0.31654E-05   -0.10015E-04  1906   0.557E-02    0.123E-02
RMM:   8    -0.785208963670E+02   -0.15015E-05   -0.23635E-05  1469   0.332E-02
  26 F= -.81610340E+02 E0= -.81614240E+02  d E =-.769230E-01
       N       E                     dE             d eps       ncg     rms          rms(c)
DAV:   1    -0.785644050192E+02   -0.43510E-01   -0.14187E+01  2000   0.155E+01    0.102E+00
RMM:   2    -0.785955230190E+02   -0.31118E-01   -0.33533E-01  2492   0.327E+00    0.552E-01
RMM:   3    -0.786055188775E+02   -0.99959E-02   -0.71816E-02  2694   0.117E+00    0.702E-01
RMM:   4    -0.785952539519E+02    0.10265E-01   -0.10068E-02  2577   0.471E-01    0.312E-01
RMM:   5    -0.785946583497E+02    0.59560E-03   -0.38658E-03  2418   0.310E-01    0.180E-01
RMM:   6    -0.785943613347E+02    0.29701E-03   -0.19413E-03  2665   0.190E-01    0.521E-02
RMM:   7    -0.785943429191E+02    0.18416E-04   -0.33334E-04  2309   0.965E-02    0.248E-02
RMM:   8    -0.785943507345E+02   -0.78154E-05   -0.12092E-04  1972   0.529E-02    0.150E-02
RMM:   9    -0.785943641680E+02   -0.13433E-04   -0.29297E-05  1518   0.296E-02    0.717E-03
RMM:  10    -0.785943855048E+02   -0.21337E-04   -0.10152E-05  1272   0.242E-02    0.428E-03
RMM:  11    -0.785944052295E+02   -0.19725E-04   -0.73047E-06  1271   0.187E-02    0.327E-03
RMM:  12    -0.785944339139E+02   -0.28684E-04   -0.58966E-06  1265   0.151E-02    0.258E-03
RMM:  13    -0.785944734927E+02   -0.39579E-04   -0.90161E-06  1296   0.154E-02    0.269E-03
RMM:  14    -0.785945011486E+02   -0.27656E-04   -0.82949E-06  1309   0.146E-02    0.147E-03
RMM:  15    -0.785945076054E+02   -0.64568E-05   -0.32885E-06  1238   0.121E-02
  27 F= -.81678919E+02 E0= -.81683022E+02  d E =-.145502E+00
       N       E                     dE             d eps       ncg     rms          rms(c)
DAV:   1    -0.784256760380E+02    0.16883E+00   -0.58707E+01  2000   0.311E+01    0.223E+00
RMM:   2    -0.785565569523E+02   -0.13088E+00   -0.15363E+00  2559   0.665E+00    0.955E-01
RMM:   3    -0.786061891155E+02   -0.49632E-01   -0.29145E-01  2685   0.236E+00    0.950E-01
RMM:   4    -0.785695813038E+02    0.36608E-01   -0.50818E-02  2537   0.107E+00    0.447E-01
RMM:   5    -0.785687910214E+02    0.79028E-03   -0.18002E-02  2533   0.686E-01    0.260E-01
RMM:   6    -0.785674278092E+02    0.13632E-02   -0.55044E-03  2510   0.387E-01    0.943E-02
RMM:   7    -0.785673583409E+02    0.69468E-04   -0.16117E-03  2708   0.146E-01    0.487E-02
RMM:   8    -0.785673525023E+02    0.58386E-05   -0.41988E-04  2349   0.971E-02    0.314E-02
RMM:   9    -0.785673602173E+02   -0.77150E-05   -0.15719E-04  2122   0.450E-02    0.138E-02
RMM:  10    -0.785673824229E+02   -0.22206E-04   -0.50012E-05  1677   0.519E-02    0.958E-03
RMM:  11    -0.785674226307E+02   -0.40208E-04   -0.30855E-05  1514   0.221E-02    0.541E-03
RMM:  12    -0.785674827590E+02   -0.60128E-04   -0.15427E-05  1336   0.271E-02    0.419E-03
RMM:  13    -0.785675764545E+02   -0.93695E-04   -0.32897E-05  1495   0.192E-02    0.393E-03
RMM:  14    -0.785676054102E+02   -0.28956E-04   -0.75528E-06  1288   0.230E-02    0.150E-03
RMM:  15    -0.785676322057E+02   -0.26796E-04   -0.67845E-06  1276   0.969E-03    0.149E-03
RMM:  16    -0.785676519913E+02   -0.19786E-04   -0.34382E-06  1254   0.120E-02    0.164E-03
RMM:  17    -0.785676591989E+02   -0.72076E-05   -0.20785E-06  1237   0.940E-03
  28 F= -.81643957E+02 E0= -.81648199E+02  d E =-.110540E+00
       N       E                     dE             d eps       ncg     rms          rms(c)
DAV:   1    -0.785445739184E+02    0.23078E-01   -0.25155E+01  2000   0.202E+01    0.198E+00
RMM:   2    -0.786126305235E+02   -0.68057E-01   -0.83364E-01  2482   0.500E+00    0.996E-01
RMM:   3    -0.786333729204E+02   -0.20742E-01   -0.18050E-01  2684   0.183E+00    0.954E-01
RMM:   4    -0.786141011835E+02    0.19272E-01   -0.36756E-02  2533   0.855E-01    0.692E-01
RMM:   5    -0.786132595341E+02    0.84165E-03   -0.93491E-03  2291   0.581E-01    0.501E-01
RMM:   6    -0.786120516359E+02    0.12079E-02   -0.12109E-02  2542   0.496E-01    0.258E-01
RMM:   7    -0.786114525245E+02    0.59911E-03   -0.20761E-03  2626   0.172E-01    0.927E-02
RMM:   8    -0.786113584610E+02    0.94063E-04   -0.57584E-04  2243   0.156E-01    0.745E-02
RMM:   9    -0.786113624275E+02   -0.39664E-05   -0.48176E-04  2293   0.692E-02    0.309E-02
RMM:  10    -0.786114323489E+02   -0.69921E-04   -0.16818E-04  1942   0.769E-02    0.936E-03
RMM:  11    -0.786115122473E+02   -0.79898E-04   -0.77864E-05  1683   0.355E-02    0.145E-02
RMM:  12    -0.786115508930E+02   -0.38646E-04   -0.17718E-05  1359   0.341E-02    0.529E-03
RMM:  13    -0.786116165735E+02   -0.65680E-04   -0.45070E-05  1530   0.282E-02    0.129E-02
RMM:  14    -0.786116301622E+02   -0.13589E-04   -0.91056E-06  1292   0.214E-02    0.430E-03
RMM:  15    -0.786116436812E+02   -0.13519E-04   -0.92015E-06  1269   0.121E-02    0.309E-03
RMM:  16    -0.786116740506E+02   -0.30369E-04   -0.13384E-05  1334   0.173E-02    0.620E-03
RMM:  17    -0.786116755361E+02   -0.14855E-05   -0.37482E-06  1270   0.150E-02
  29 F= -.81693090E+02 E0= -.81697290E+02  d E =-.159674E+00
       N       E                     dE             d eps       ncg     rms          rms(c)
DAV:   1    -0.786378517970E+02   -0.26178E-01   -0.17889E+00  2128   0.535E+00    0.396E-01
RMM:   2    -0.786422043140E+02   -0.43525E-02   -0.45744E-02  2622   0.108E+00    0.288E-01
RMM:   3    -0.786416238008E+02    0.58051E-03   -0.89200E-03  2650   0.408E-01    0.196E-01
RMM:   4    -0.786407220480E+02    0.90175E-03   -0.16111E-03  2467   0.200E-01    0.130E-01
RMM:   5    -0.786405406090E+02    0.18144E-03   -0.35547E-04  2144   0.121E-01    0.804E-02
RMM:   6    -0.786405152650E+02    0.25344E-04   -0.41314E-04  2340   0.810E-02    0.184E-02
RMM:   7    -0.786405140035E+02    0.12615E-05   -0.58774E-05  1733   0.481E-02
  30 F= -.81720932E+02 E0= -.81725216E+02  d E =-.278414E-01
       N       E                     dE             d eps       ncg     rms          rms(c)
DAV:   1    -0.786456657979E+02   -0.51505E-02   -0.11917E+01  2000   0.137E+01    0.992E-01
RMM:   2    -0.786687643696E+02   -0.23099E-01   -0.28118E-01  2597   0.269E+00    0.570E-01
RMM:   3    -0.786722479318E+02   -0.34836E-02   -0.54453E-02  2659   0.102E+00    0.512E-01
RMM:   4    -0.786644283064E+02    0.78196E-02   -0.11492E-02  2468   0.529E-01    0.308E-01
RMM:   5    -0.786632504694E+02    0.11778E-02   -0.37725E-03  2298   0.346E-01    0.160E-01
RMM:   6    -0.786631311994E+02    0.11927E-03   -0.17080E-03  2662   0.173E-01    0.483E-02
RMM:   7    -0.786631309811E+02    0.21825E-06   -0.29222E-04  2282   0.897E-02    0.275E-02
RMM:   8    -0.786631383316E+02   -0.73504E-05   -0.84873E-05  1857   0.497E-02
  31 F= -.81741155E+02 E0= -.81745630E+02  d E =-.480647E-01
       N       E                     dE             d eps       ncg     rms          rms(c)
DAV:   1    -0.786637597051E+02   -0.62872E-03   -0.71810E-01  2272   0.335E+00    0.269E-01
RMM:   2    -0.786653668451E+02   -0.16071E-02   -0.19668E-02  2544   0.724E-01    0.174E-01
RMM:   3    -0.786653357401E+02    0.31105E-04   -0.35575E-03  2587   0.263E-01    0.134E-01
RMM:   4    -0.786649269387E+02    0.40880E-03   -0.73734E-04  2381   0.136E-01    0.956E-02
RMM:   5    -0.786648933273E+02    0.33611E-04   -0.17412E-04  1971   0.843E-02    0.643E-02
RMM:   6    -0.786649052941E+02   -0.11967E-04   -0.17030E-04  2043   0.632E-02    0.174E-02
RMM:   7    -0.786649193531E+02   -0.14059E-04   -0.36308E-05  1548   0.405E-02    0.796E-03
RMM:   8    -0.786649252983E+02   -0.59452E-05   -0.11491E-05  1298   0.254E-02
  32 F= -.81743513E+02 E0= -.81747949E+02  d E =-.504223E-01
       N       E                     dE             d eps       ncg     rms          rms(c)
DAV:   1    -0.786738400563E+02   -0.89207E-02   -0.51182E-01  2208   0.279E+00    0.253E-01
RMM:   2    -0.786751992748E+02   -0.13592E-02   -0.17245E-02  2728   0.586E-01    0.195E-01
RMM:   3    -0.786745929086E+02    0.60637E-03   -0.22761E-03  2535   0.225E-01    0.118E-01
RMM:   4    -0.786741879493E+02    0.40496E-03   -0.42801E-04  2242   0.119E-01    0.851E-02
RMM:   5    -0.786741522910E+02    0.35658E-04   -0.10242E-04  1848   0.626E-02    0.589E-02
RMM:   6    -0.786741452843E+02    0.70068E-05   -0.19913E-04  1988   0.589E-02    0.173E-02
RMM:   7    -0.786741407742E+02    0.45100E-05   -0.21503E-05  1383   0.388E-02
  33 F= -.81752408E+02 E0= -.81756879E+02  d E =-.889549E-02
       N       E                     dE             d eps       ncg     rms          rms(c)
DAV:   1    -0.786798038471E+02   -0.56586E-02   -0.20780E+00  2032   0.559E+00    0.487E-01
RMM:   2    -0.786842497440E+02   -0.44459E-02   -0.63809E-02  2729   0.113E+00    0.341E-01
RMM:   3    -0.786828810831E+02    0.13687E-02   -0.87707E-03  2566   0.433E-01    0.237E-01
RMM:   4    -0.786812033118E+02    0.16778E-02   -0.15967E-03  2353   0.229E-01    0.168E-01
RMM:   5    -0.786810319343E+02    0.17138E-03   -0.58094E-04  2276   0.132E-01    0.109E-01
RMM:   6    -0.786809846988E+02    0.47236E-04   -0.47812E-04  2374   0.943E-02    0.290E-02
RMM:   7    -0.786809783798E+02    0.63190E-05   -0.87892E-05  1860   0.563E-02
  34 F= -.81758624E+02 E0= -.81763177E+02  d E =-.151109E-01
       N       E                     dE             d eps       ncg     rms          rms(c)
DAV:   1    -0.786810081013E+02   -0.23402E-04   -0.20301E-02  2424   0.550E-01    0.513E-02
RMM:   2    -0.786810665262E+02   -0.58425E-04   -0.71671E-04  2249   0.129E-01    0.367E-02
RMM:   3    -0.786810467868E+02    0.19739E-04   -0.91986E-05  1840   0.506E-02    0.238E-02
RMM:   4    -0.786810359538E+02    0.10833E-04   -0.14961E-05  1320   0.325E-02    0.186E-02
RMM:   5    -0.786810381107E+02   -0.21570E-05   -0.66391E-06  1273   0.221E-02
  35 F= -.81758743E+02 E0= -.81763284E+02  d E =-.152305E-01
       N       E                     dE             d eps       ncg     rms          rms(c)
DAV:   1    -0.786832218973E+02   -0.21859E-02   -0.20000E-02  2368   0.552E-01    0.444E-02
RMM:   2    -0.786833028043E+02   -0.80907E-04   -0.97825E-04  2439   0.200E-01    0.291E-02
RMM:   3    -0.786833292247E+02   -0.26420E-04   -0.23384E-04  2010   0.659E-02    0.176E-02
RMM:   4    -0.786833324516E+02   -0.32269E-05   -0.34221E-05  1457   0.388E-02
  36 F= -.81760868E+02 E0= -.81765403E+02  d E =-.212440E-02
       N       E                     dE             d eps       ncg     rms          rms(c)
DAV:   1    -0.786887353597E+02   -0.54061E-02   -0.17686E-01  2096   0.165E+00    0.128E-01
RMM:   2    -0.786894621444E+02   -0.72678E-03   -0.87743E-03  2541   0.578E-01    0.908E-02
RMM:   3    -0.786896598803E+02   -0.19774E-03   -0.19353E-03  2538   0.185E-01    0.617E-02
RMM:   4    -0.786896754281E+02   -0.15548E-04   -0.30429E-04  2268   0.796E-02    0.537E-02
RMM:   5    -0.786896250485E+02    0.50380E-04   -0.94487E-05  1855   0.506E-02    0.325E-02
RMM:   6    -0.786896261061E+02   -0.10576E-05   -0.38036E-05  1595   0.452E-02
  37 F= -.81766658E+02 E0= -.81771250E+02  d E =-.791454E-02
       N       E                     dE             d eps       ncg     rms          rms(c)
DAV:   1    -0.786963170788E+02   -0.66920E-02   -0.70344E-01  2016   0.329E+00    0.251E-01
RMM:   2    -0.786990616659E+02   -0.27446E-02   -0.34017E-02  2472   0.119E+00    0.184E-01
RMM:   3    -0.786999024836E+02   -0.84082E-03   -0.88293E-03  2677   0.393E-01    0.119E-01
RMM:   4    -0.787000467665E+02   -0.14428E-03   -0.12951E-03  2642   0.156E-01    0.109E-01
RMM:   5    -0.786998042379E+02    0.24253E-03   -0.37882E-04  2279   0.949E-02    0.653E-02
RMM:   6    -0.786998010061E+02    0.32318E-05   -0.19069E-04  2180   0.803E-02    0.186E-02
RMM:   7    -0.786998087975E+02   -0.77914E-05   -0.66591E-05  1705   0.412E-02
  38 F= -.81775862E+02 E0= -.81780537E+02  d E =-.171187E-01
       N       E                     dE             d eps       ncg     rms          rms(c)
DAV:   1    -0.786966072363E+02    0.31938E-02   -0.28156E+00  2000   0.660E+00    0.487E-01
RMM:   2    -0.787075064145E+02   -0.10899E-01   -0.13530E-01  2497   0.235E+00    0.369E-01
RMM:   3    -0.787105677192E+02   -0.30613E-02   -0.33350E-02  2675   0.759E-01    0.233E-01
RMM:   4    -0.787115067090E+02   -0.93899E-03   -0.51537E-03  2712   0.311E-01    0.215E-01
RMM:   5    -0.787102933394E+02    0.12134E-02   -0.14852E-03  2333   0.195E-01    0.121E-01
RMM:   6    -0.787102862196E+02    0.71198E-05   -0.76250E-04  2438   0.150E-01    0.333E-02
RMM:   7    -0.787103009476E+02   -0.14728E-04   -0.22657E-04  2150   0.726E-02    0.175E-02
RMM:   8    -0.787103008106E+02    0.13695E-06   -0.39624E-05  1579   0.376E-02
  39 F= -.81784513E+02 E0= -.81789322E+02  d E =-.257693E-01
       N       E                     dE             d eps       ncg     rms          rms(c)
DAV:   1    -0.787144864004E+02   -0.41855E-02   -0.26997E-01  2000   0.205E+00    0.155E-01
RMM:   2    -0.787155492598E+02   -0.10629E-02   -0.13717E-02  2606   0.634E-01    0.848E-02
RMM:   3    -0.787157211361E+02   -0.17188E-03   -0.16421E-03  2643   0.187E-01    0.703E-02
RMM:   4    -0.787155852690E+02    0.13587E-03   -0.31697E-04  2390   0.863E-02    0.495E-02
RMM:   5    -0.787155596832E+02    0.25586E-04   -0.14593E-04  2017   0.574E-02    0.214E-02
RMM:   6    -0.787155625537E+02   -0.28705E-05   -0.43101E-05  1602   0.451E-02
  40 F= -.81789895E+02 E0= -.81794658E+02  d E =-.538243E-02
       N       E                     dE             d eps       ncg     rms          rms(c)
DAV:   1    -0.787159665776E+02   -0.40689E-03   -0.11823E-01  2096   0.136E+00    0.103E-01
RMM:   2    -0.787164408435E+02   -0.47427E-03   -0.60892E-03  2571   0.435E-01    0.569E-02
RMM:   3    -0.787165247930E+02   -0.83949E-04   -0.79164E-04  2512   0.130E-01    0.479E-02
RMM:   4    -0.787164622521E+02    0.62541E-04   -0.14854E-04  2125   0.634E-02    0.339E-02
RMM:   5    -0.787164519226E+02    0.10329E-04   -0.59416E-05  1710   0.401E-02    0.147E-02
RMM:   6    -0.787164541844E+02   -0.22618E-05   -0.20122E-05  1365   0.346E-02
  41 F= -.81790886E+02 E0= -.81795612E+02  d E =-.637309E-02
       N       E                     dE             d eps       ncg     rms          rms(c)
DAV:   1    -0.787181208860E+02   -0.16690E-02   -0.16895E-02  2416   0.512E-01    0.443E-02
RMM:   2    -0.787181729409E+02   -0.52055E-04   -0.79643E-04  2455   0.176E-01    0.229E-02
RMM:   3    -0.787181835448E+02   -0.10604E-04   -0.16251E-04  2033   0.593E-02    0.163E-02
RMM:   4    -0.787181845489E+02   -0.10041E-05   -0.26693E-05  1436   0.357E-02
  42 F= -.81792678E+02 E0= -.81797379E+02  d E =-.179270E-02
       N       E                     dE             d eps       ncg     rms          rms(c)
DAV:   1    -0.787218596524E+02   -0.36761E-02   -0.15080E-01  2000   0.153E+00    0.128E-01
RMM:   2    -0.787223356690E+02   -0.47602E-03   -0.71840E-03  2589   0.495E-01    0.672E-02
RMM:   3    -0.787223983747E+02   -0.62706E-04   -0.11152E-03  2575   0.153E-01    0.489E-02
RMM:   4    -0.787224025064E+02   -0.41317E-05   -0.23749E-04  2276   0.717E-02    0.404E-02
RMM:   5    -0.787223643291E+02    0.38177E-04   -0.79833E-05  1823   0.437E-02    0.198E-02
RMM:   6    -0.787223630247E+02    0.13043E-05   -0.26442E-05  1443   0.338E-02
  43 F= -.81797050E+02 E0= -.81801706E+02  d E =-.616420E-02
       N       E                     dE             d eps       ncg     rms          rms(c)
DAV:   1    -0.787242902127E+02   -0.19259E-02   -0.60196E-01  2000   0.307E+00    0.241E-01
RMM:   2    -0.787261238508E+02   -0.18336E-02   -0.27535E-02  2621   0.952E-01    0.128E-01
RMM:   3    -0.787262764272E+02   -0.15258E-03   -0.40534E-03  2684   0.288E-01    0.915E-02
RMM:   4    -0.787262838388E+02   -0.74116E-05   -0.81260E-04  2592   0.114E-01    0.568E-02
RMM:   5    -0.787262892772E+02   -0.54384E-05   -0.30932E-04  2271   0.762E-02    0.468E-02
RMM:   6    -0.787262260739E+02    0.63203E-04   -0.10391E-04  1926   0.543E-02    0.135E-02
RMM:   7    -0.787262257305E+02    0.34337E-06   -0.23532E-05  1452   0.342E-02
  44 F= -.81801326E+02 E0= -.81805843E+02  d E =-.104403E-01
       N       E                     dE             d eps       ncg     rms          rms(c)
DAV:   1    -0.787261860229E+02    0.40051E-04   -0.23938E-02  2664   0.615E-01    0.494E-02
RMM:   2    -0.787262611494E+02   -0.75127E-04   -0.11380E-03  2454   0.207E-01    0.270E-02
RMM:   3    -0.787262712815E+02   -0.10132E-04   -0.20931E-04  2087   0.672E-02    0.184E-02
RMM:   4    -0.787262709615E+02    0.32009E-06   -0.31581E-05  1494   0.362E-02
  45 F= -.81801458E+02 E0= -.81805939E+02  d E =-.105722E-01
       N       E                     dE             d eps       ncg     rms          rms(c)
DAV:   1    -0.787271222050E+02   -0.85092E-03   -0.73459E-03  2416   0.348E-01    0.447E-02
RMM:   2    -0.787271496221E+02   -0.27417E-04   -0.51318E-04  2396   0.101E-01    0.442E-02
RMM:   3    -0.787271095945E+02    0.40028E-04   -0.47929E-05  1613   0.429E-02    0.160E-02
RMM:   4    -0.787271066376E+02    0.29569E-05   -0.15849E-05  1282   0.294E-02
  46 F= -.81802280E+02 E0= -.81806763E+02  d E =-.822098E-03
       N       E                     dE             d eps       ncg     rms          rms(c)
DAV:   1    -0.787282413983E+02   -0.11318E-02   -0.53324E-02  2048   0.932E-01    0.125E-01
RMM:   2    -0.787286155921E+02   -0.37419E-03   -0.38064E-03  2734   0.262E-01    0.135E-01
RMM:   3    -0.787281711300E+02    0.44446E-03   -0.48344E-04  2367   0.112E-01    0.525E-02
RMM:   4    -0.787281040420E+02    0.67088E-04   -0.13369E-04  1941   0.625E-02    0.376E-02
RMM:   5    -0.787280910648E+02    0.12977E-04   -0.38393E-05  1574   0.370E-02    0.186E-02
RMM:   6    -0.787280915644E+02   -0.49964E-06   -0.40494E-05  1566   0.371E-02
  47 F= -.81803229E+02 E0= -.81807711E+02  d E =-.177149E-02
       N       E                     dE             d eps       ncg     rms          rms(c)
DAV:   1    -0.787287346461E+02   -0.64358E-03   -0.14287E-02  2176   0.500E-01    0.346E-02
RMM:   2    -0.787287881280E+02   -0.53482E-04   -0.58106E-04  2551   0.136E-01    0.258E-02
RMM:   3    -0.787287881441E+02   -0.16145E-07   -0.91622E-05  1682   0.438E-02
  48 F= -.81803985E+02 E0= -.81808457E+02  d E =-.756001E-03
       N       E                     dE             d eps       ncg     rms          rms(c)
DAV:   1    -0.787291363319E+02   -0.34820E-03   -0.69735E-02  2000   0.110E+00    0.818E-02
RMM:   2    -0.787293648582E+02   -0.22853E-03   -0.28601E-03  2635   0.296E-01    0.598E-02
RMM:   3    -0.787293718686E+02   -0.70104E-05   -0.46376E-04  2377   0.897E-02    0.415E-02
RMM:   4    -0.787293442325E+02    0.27636E-04   -0.97041E-05  1906   0.515E-02    0.280E-02
RMM:   5    -0.787293274596E+02    0.16773E-04   -0.33079E-05  1554   0.404E-02    0.151E-02
RMM:   6    -0.787293264813E+02    0.97827E-06   -0.19694E-05  1352   0.301E-02
  49 F= -.81804657E+02 E0= -.81809144E+02  d E =-.142814E-02
       N       E                     dE             d eps       ncg     rms          rms(c)
DAV:   1    -0.787296961509E+02   -0.36869E-03   -0.65385E-03  2304   0.340E-01    0.190E-02
RMM:   2    -0.787297130805E+02   -0.16930E-04   -0.20204E-04  2154   0.861E-02    0.101E-02
RMM:   3    -0.787297158563E+02   -0.27758E-05   -0.36645E-05  1378   0.337E-02
  50 F= -.81805114E+02 E0= -.81809607E+02  d E =-.456812E-03
       N       E                     dE             d eps       ncg     rms          rms(c)
DAV:   1    -0.787306236027E+02   -0.91052E-03   -0.59619E-02  2000   0.102E+00    0.561E-02
RMM:   2    -0.787307700256E+02   -0.14642E-03   -0.17739E-03  2591   0.245E-01    0.341E-02
RMM:   3    -0.787307924742E+02   -0.22449E-04   -0.30555E-04  2157   0.715E-02    0.270E-02
RMM:   4    -0.787307917811E+02    0.69308E-06   -0.56545E-05  1586   0.441E-02
  51 F= -.81806394E+02 E0= -.81810892E+02  d E =-.173631E-02
       N       E                     dE             d eps       ncg     rms          rms(c)
DAV:   1    -0.787318305863E+02   -0.10381E-02   -0.23673E-01  2000   0.203E+00    0.108E-01
RMM:   2    -0.787324045976E+02   -0.57401E-03   -0.69257E-03  2597   0.491E-01    0.675E-02
RMM:   3    -0.787324886434E+02   -0.84046E-04   -0.12145E-03  2474   0.140E-01    0.500E-02
RMM:   4    -0.787325222426E+02   -0.33599E-04   -0.24968E-04  2138   0.744E-02    0.438E-02
RMM:   5    -0.787324831237E+02    0.39119E-04   -0.77081E-05  1854   0.491E-02    0.224E-02
RMM:   6    -0.787324753377E+02    0.77860E-05   -0.28895E-05  1498   0.397E-02
  52 F= -.81808490E+02 E0= -.81813031E+02  d E =-.383269E-02
       N       E                     dE             d eps       ncg     rms          rms(c)
DAV:   1    -0.787314835062E+02    0.99962E-03   -0.95013E-01  2000   0.407E+00    0.210E-01
RMM:   2    -0.787338179256E+02   -0.23344E-02   -0.27822E-02  2589   0.977E-01    0.129E-01
RMM:   3    -0.787341326034E+02   -0.31468E-03   -0.47650E-03  2663   0.290E-01    0.908E-02
RMM:   4    -0.787342776473E+02   -0.14504E-03   -0.10229E-03  2539   0.141E-01    0.806E-02
RMM:   5    -0.787341212033E+02    0.15644E-03   -0.25225E-04  2276   0.772E-02    0.467E-02
RMM:   6    -0.787340859539E+02    0.35249E-04   -0.11657E-04  1995   0.620E-02    0.146E-02
RMM:   7    -0.787340891223E+02   -0.31684E-05   -0.34051E-05  1520   0.293E-02
  53 F= -.81810952E+02 E0= -.81815558E+02  d E =-.629427E-02
       N       E                     dE             d eps       ncg     rms          rms(c)
DAV:   1    -0.787199433424E+02    0.14143E-01   -0.38140E+00  2000   0.814E+00    0.417E-01
RMM:   2    -0.787294236869E+02   -0.94803E-02   -0.11100E-01  2587   0.194E+00    0.262E-01
RMM:   3    -0.787308639718E+02   -0.14403E-02   -0.18970E-02  2670   0.585E-01    0.190E-01
RMM:   4    -0.787309439782E+02   -0.80006E-04   -0.37378E-03  2646   0.267E-01    0.162E-01
RMM:   5    -0.787303670177E+02    0.57696E-03   -0.10198E-03  2506   0.156E-01    0.802E-02
RMM:   6    -0.787302691336E+02    0.97884E-04   -0.41552E-04  2268   0.124E-01    0.223E-02
RMM:   7    -0.787302840444E+02   -0.14911E-04   -0.12976E-04  1980   0.417E-02    0.154E-02
RMM:   8    -0.787302839473E+02    0.97106E-07   -0.26116E-05  1507   0.436E-02
  54 F= -.81808928E+02 E0= -.81813667E+02  d E =-.427077E-02
       N       E                     dE             d eps       ncg     rms          rms(c)
DAV:   1    -0.787283002873E+02    0.19838E-02   -0.19064E+00  2000   0.576E+00    0.321E-01
RMM:   2    -0.787331236036E+02   -0.48233E-02   -0.57487E-02  2553   0.145E+00    0.197E-01
RMM:   3    -0.787340928731E+02   -0.96927E-03   -0.12608E-02  2681   0.458E-01    0.147E-01
RMM:   4    -0.787344291873E+02   -0.33631E-03   -0.22362E-03  2584   0.204E-01    0.136E-01
RMM:   5    -0.787339987593E+02    0.43043E-03   -0.49851E-04  2403   0.110E-01    0.784E-02
RMM:   6    -0.787339538187E+02    0.44941E-04   -0.38104E-04  2303   0.105E-01    0.257E-02
RMM:   7    -0.787339561867E+02   -0.23680E-05   -0.82230E-05  1845   0.441E-02
  55 F= -.81811325E+02 E0= -.81815963E+02  d E =-.666720E-02
       N       E                     dE             d eps       ncg     rms          rms(c)
DAV:   1    -0.787350732689E+02   -0.11195E-02   -0.17819E-01  2128   0.176E+00    0.669E-02
RMM:   2    -0.787353802409E+02   -0.30697E-03   -0.37983E-03  2553   0.367E-01    0.424E-02
RMM:   3    -0.787354302560E+02   -0.50015E-04   -0.79300E-04  2317   0.113E-01    0.339E-02
RMM:   4    -0.787354404043E+02   -0.10148E-04   -0.13057E-04  1903   0.599E-02    0.297E-02
RMM:   5    -0.787354250718E+02    0.15333E-04   -0.25217E-05  1404   0.318E-02    0.169E-02
RMM:   6    -0.787354220138E+02    0.30580E-05   -0.23752E-05  1400   0.332E-02
  56 F= -.81813230E+02 E0= -.81817888E+02  d E =-.190554E-02
       N       E                     dE             d eps       ncg     rms          rms(c)
DAV:   1    -0.787376503718E+02   -0.22253E-02   -0.16050E+00  2000   0.528E+00    0.204E-01
RMM:   2    -0.787406389729E+02   -0.29886E-02   -0.35788E-02  2517   0.115E+00    0.135E-01
RMM:   3    -0.787411537920E+02   -0.51482E-03   -0.74456E-03  2741   0.352E-01    0.106E-01
RMM:   4    -0.787412172875E+02   -0.63495E-04   -0.11858E-03  2519   0.140E-01    0.972E-02
RMM:   5    -0.787410594489E+02    0.15784E-03   -0.26719E-04  2201   0.744E-02    0.571E-02
RMM:   6    -0.787410359945E+02    0.23454E-04   -0.26771E-04  2187   0.801E-02    0.204E-02
RMM:   7    -0.787410311985E+02    0.47960E-05   -0.31311E-05  1515   0.375E-02
  57 F= -.81820162E+02 E0= -.81824860E+02  d E =-.883756E-02
       N       E                     dE             d eps       ncg     rms          rms(c)
DAV:   1    -0.787435142776E+02   -0.24783E-02   -0.64405E+00  2000   0.106E+01    0.412E-01
RMM:   2    -0.787558402362E+02   -0.12326E-01   -0.14619E-01  2521   0.227E+00    0.277E-01
RMM:   3    -0.787577117132E+02   -0.18715E-02   -0.28245E-02  2751   0.689E-01    0.219E-01
RMM:   4    -0.787575328204E+02    0.17889E-03   -0.42615E-03  2686   0.268E-01    0.196E-01
RMM:   5    -0.787569446575E+02    0.58816E-03   -0.99570E-04  2432   0.145E-01    0.118E-01
RMM:   6    -0.787568671618E+02    0.77496E-04   -0.13100E-03  2552   0.162E-01    0.467E-02
RMM:   7    -0.787568381586E+02    0.29003E-04   -0.13934E-04  2021   0.678E-02    0.302E-02
RMM:   8    -0.787568304663E+02    0.76923E-05   -0.44455E-05  1665   0.318E-02
  58 F= -.81838620E+02 E0= -.81843413E+02  d E =-.272952E-01
       N       E                     dE             d eps       ncg     rms          rms(c)
DAV:   1    -0.787377430351E+02    0.19095E-01   -0.25643E+01  2000   0.212E+01    0.101E+00
RMM:   2    -0.787967342723E+02   -0.58991E-01   -0.69638E-01  2581   0.451E+00    0.630E-01
RMM:   3    -0.788003298182E+02   -0.35955E-02   -0.92865E-02  2692   0.129E+00    0.495E-01
RMM:   4    -0.787970196854E+02    0.33101E-02   -0.15083E-02  2639   0.562E-01    0.435E-01
RMM:   5    -0.787947170471E+02    0.23026E-02   -0.33981E-03  2415   0.290E-01    0.293E-01
RMM:   6    -0.787941085716E+02    0.60848E-03   -0.57292E-03  2551   0.342E-01    0.936E-02
RMM:   7    -0.787940122619E+02    0.96310E-04   -0.90324E-04  2324   0.179E-01    0.566E-02
RMM:   8    -0.787940011202E+02    0.11142E-04   -0.36298E-04  2342   0.722E-02    0.183E-02
RMM:   9    -0.787940164996E+02   -0.15379E-04   -0.72611E-05  1759   0.434E-02    0.102E-02
RMM:  10    -0.787940218552E+02   -0.53555E-05   -0.16413E-05  1391   0.285E-02
  59 F= -.81881150E+02 E0= -.81886148E+02  d E =-.698257E-01
       N       E                     dE             d eps       ncg     rms          rms(c)
DAV:   1    -0.784345681962E+02    0.35945E+00   -0.98736E+01  2000   0.419E+01    0.347E+00
RMM:   2    -0.787880750380E+02   -0.35351E+00   -0.44265E+00  2620   0.102E+01    0.162E+00
RMM:   3    -0.788089570576E+02   -0.20882E-01   -0.49556E-01  2656   0.316E+00    0.148E+00
RMM:   4    -0.787505224887E+02    0.58435E-01   -0.83263E-02  2469   0.157E+00    0.129E+00
RMM:   5    -0.787399952378E+02    0.10527E-01   -0.19243E-02  2578   0.639E-01    0.960E-01
RMM:   6    -0.787368173336E+02    0.31779E-02   -0.20448E-02  2500   0.713E-01    0.429E-01
RMM:   7    -0.787356614013E+02    0.11559E-02   -0.13919E-02  2521   0.565E-01    0.155E-01
RMM:   8    -0.787357317486E+02   -0.70347E-04   -0.30775E-03  2729   0.202E-01    0.982E-02
RMM:   9    -0.787356849717E+02    0.46777E-04   -0.17369E-03  2597   0.165E-01    0.581E-02
RMM:  10    -0.787356192714E+02    0.65700E-04   -0.21878E-04  2043   0.763E-02    0.182E-02
RMM:  11    -0.787356374973E+02   -0.18226E-04   -0.15461E-04  2000   0.421E-02    0.780E-03
RMM:  12    -0.787356522838E+02   -0.14786E-04   -0.18059E-05  1398   0.331E-02    0.420E-03
RMM:  13    -0.787356678257E+02   -0.15542E-04   -0.66105E-06  1280   0.170E-02    0.265E-03
RMM:  14    -0.787356859057E+02   -0.18080E-04   -0.39119E-06  1265   0.134E-02    0.259E-03
RMM:  15    -0.787356992070E+02   -0.13301E-04   -0.31700E-06  1264   0.112E-02    0.159E-03
RMM:  16    -0.787357153662E+02   -0.16159E-04   -0.44071E-06  1272   0.112E-02    0.362E-03
RMM:  17    -0.787357200058E+02   -0.46396E-05   -0.23009E-06  1242   0.108E-02
  60 F= -.81833460E+02 E0= -.81838423E+02  d E =-.221357E-01
       N       E                     dE             d eps       ncg     rms          rms(c)
DAV:   1    -0.785985942761E+02    0.13712E+00   -0.57382E+01  2000   0.331E+01    0.187E+00
RMM:   2    -0.787798255675E+02   -0.18123E+00   -0.19434E+00  2554   0.825E+00    0.897E-01
RMM:   3    -0.788335281655E+02   -0.53703E-01   -0.49508E-01  2719   0.280E+00    0.101E+00
RMM:   4    -0.788126163155E+02    0.20912E-01   -0.54463E-02  2600   0.977E-01    0.793E-01
RMM:   5    -0.788077706667E+02    0.48456E-02   -0.15244E-02  2643   0.498E-01    0.608E-01
RMM:   6    -0.788045589943E+02    0.32117E-02   -0.14978E-02  2699   0.476E-01    0.224E-01
RMM:   7    -0.788053127486E+02   -0.75375E-03   -0.49518E-03  2558   0.330E-01    0.182E-01
RMM:   8    -0.788049759446E+02    0.33680E-03   -0.57263E-04  2163   0.153E-01    0.132E-01
RMM:   9    -0.788047634050E+02    0.21254E-03   -0.16547E-03  2478   0.132E-01    0.142E-02
RMM:  10    -0.788047975239E+02   -0.34119E-04   -0.17174E-04  2081   0.617E-02    0.146E-02
RMM:  11    -0.788048074231E+02   -0.98992E-05   -0.25005E-05  1462   0.321E-02
  61 F= -.81894492E+02 E0= -.81899565E+02  d E =-.831671E-01
       N       E                     dE             d eps       ncg     rms          rms(c)
DAV:   1    -0.787968135240E+02    0.79840E-02   -0.38928E+00  2000   0.841E+00    0.389E-01
RMM:   2    -0.788052665336E+02   -0.84530E-02   -0.10130E-01  2561   0.186E+00    0.246E-01
RMM:   3    -0.788064419796E+02   -0.11754E-02   -0.18706E-02  2687   0.578E-01    0.205E-01
RMM:   4    -0.788055255720E+02    0.91641E-03   -0.25483E-03  2571   0.243E-01    0.163E-01
RMM:   5    -0.788052847916E+02    0.24078E-03   -0.52357E-04  2413   0.108E-01    0.110E-01
RMM:   6    -0.788052330074E+02    0.51784E-04   -0.87746E-04  2484   0.135E-01    0.384E-02
RMM:   7    -0.788052131763E+02    0.19831E-04   -0.13567E-04  2024   0.747E-02    0.221E-02
RMM:   8    -0.788052106133E+02    0.25630E-05   -0.61372E-05  1725   0.337E-02
  62 F= -.81896960E+02 E0= -.81902068E+02  d E =-.856354E-01
       N       E                     dE             d eps       ncg     rms          rms(c)
DAV:   1    -0.788053498171E+02   -0.13664E-03   -0.32568E-01  2336   0.246E+00    0.108E-01
RMM:   2    -0.788060193916E+02   -0.66957E-03   -0.78654E-03  2514   0.560E-01    0.714E-02
RMM:   3    -0.788061767032E+02   -0.15731E-03   -0.20204E-03  2541   0.188E-01    0.582E-02
RMM:   4    -0.788061124027E+02    0.64300E-04   -0.26249E-04  2131   0.799E-02    0.453E-02
RMM:   5    -0.788060945661E+02    0.17837E-04   -0.44134E-05  1568   0.377E-02    0.328E-02
RMM:   6    -0.788060875688E+02    0.69973E-05   -0.81360E-05  1775   0.467E-02
  63 F= -.81897238E+02 E0= -.81902332E+02  d E =-.859134E-01
       N       E                     dE             d eps       ncg     rms          rms(c)
DAV:   1    -0.788065565755E+02   -0.46201E-03   -0.20548E-02  2392   0.618E-01    0.246E-02
RMM:   2    -0.788065965757E+02   -0.40000E-04   -0.50625E-04  2253   0.149E-01    0.180E-02
RMM:   3    -0.788066092476E+02   -0.12672E-04   -0.15422E-04  1678   0.565E-02    0.151E-02
RMM:   4    -0.788066073653E+02    0.18823E-05   -0.21352E-05  1280   0.383E-02
  64 F= -.81897907E+02 E0= -.81903010E+02  d E =-.668712E-03
       N       E                     dE             d eps       ncg     rms          rms(c)
DAV:   1    -0.788075591615E+02   -0.94991E-03   -0.18043E-01  2000   0.182E+00    0.728E-02
RMM:   2    -0.788079118760E+02   -0.35271E-03   -0.41866E-03  2516   0.396E-01    0.508E-02
RMM:   3    -0.788079856049E+02   -0.73729E-04   -0.95098E-04  2410   0.129E-01    0.436E-02
RMM:   4    -0.788079596445E+02    0.25960E-04   -0.12456E-04  1940   0.605E-02    0.351E-02
RMM:   5    -0.788079495248E+02    0.10120E-04   -0.24441E-05  1408   0.292E-02    0.230E-02
RMM:   6    -0.788079494649E+02    0.59922E-07   -0.48058E-05  1640   0.409E-02
  65 F= -.81899695E+02 E0= -.81904804E+02  d E =-.245711E-02
       N       E                     dE             d eps       ncg     rms          rms(c)
DAV:   1    -0.788079761859E+02   -0.26661E-04   -0.72047E-01  2000   0.364E+00    0.154E-01
RMM:   2    -0.788094400519E+02   -0.14639E-02   -0.17235E-02  2525   0.794E-01    0.955E-02
RMM:   3    -0.788097420091E+02   -0.30196E-03   -0.37297E-03  2638   0.255E-01    0.790E-02
RMM:   4    -0.788096443131E+02    0.97696E-04   -0.51541E-04  2396   0.105E-01    0.649E-02
RMM:   5    -0.788096044510E+02    0.39862E-04   -0.92420E-05  1894   0.485E-02    0.449E-02
RMM:   6    -0.788095971942E+02    0.72568E-05   -0.15956E-04  1979   0.638E-02    0.157E-02
RMM:   7    -0.788095968850E+02    0.30917E-06   -0.23916E-05  1394   0.410E-02
  66 F= -.81902233E+02 E0= -.81907345E+02  d E =-.499471E-02
       N       E                     dE             d eps       ncg     rms          rms(c)
DAV:   1    -0.788013705088E+02    0.82267E-02   -0.28896E+00  2000   0.732E+00    0.324E-01
RMM:   2    -0.788075773768E+02   -0.62069E-02   -0.73615E-02  2539   0.163E+00    0.200E-01
RMM:   3    -0.788087440492E+02   -0.11667E-02   -0.15139E-02  2679   0.513E-01    0.167E-01
RMM:   4    -0.788082283656E+02    0.51568E-03   -0.20912E-03  2599   0.212E-01    0.138E-01
RMM:   5    -0.788080473601E+02    0.18101E-03   -0.36869E-04  2339   0.884E-02    0.932E-02
RMM:   6    -0.788080163961E+02    0.30964E-04   -0.64030E-04  2403   0.116E-01    0.339E-02
RMM:   7    -0.788080060389E+02    0.10357E-04   -0.10506E-04  1915   0.683E-02    0.221E-02
RMM:   8    -0.788080026256E+02    0.34134E-05   -0.51396E-05  1695   0.325E-02
  67 F= -.81902409E+02 E0= -.81907521E+02  d E =-.517141E-02
       N       E                     dE             d eps       ncg     rms          rms(c)
DAV:   1    -0.788080305124E+02   -0.24473E-04   -0.68954E-01  2000   0.360E+00    0.154E-01
RMM:   2    -0.788094184235E+02   -0.13879E-02   -0.16185E-02  2494   0.812E-01    0.980E-02
RMM:   3    -0.788098358201E+02   -0.41740E-03   -0.45743E-03  2640   0.281E-01    0.813E-02
RMM:   4    -0.788097217266E+02    0.11409E-03   -0.58467E-04  2381   0.110E-01    0.654E-02
RMM:   5    -0.788096837319E+02    0.37995E-04   -0.95100E-05  1880   0.463E-02    0.481E-02
RMM:   6    -0.788096743616E+02    0.93703E-05   -0.15603E-04  1966   0.612E-02    0.165E-02
RMM:   7    -0.788096747126E+02   -0.35094E-06   -0.25783E-05  1392   0.436E-02
  68 F= -.81903216E+02 E0= -.81908330E+02  d E =-.597835E-02
       N       E                     dE             d eps       ncg     rms          rms(c)
DAV:   1    -0.788129949034E+02   -0.33205E-02   -0.20549E-02  2352   0.613E-01    0.218E-02
RMM:   2    -0.788130246602E+02   -0.29757E-04   -0.37402E-04  2014   0.119E-01    0.136E-02
RMM:   3    -0.788130331778E+02   -0.85175E-05   -0.91899E-05  1507   0.462E-02
  69 F= -.81906721E+02 E0= -.81911846E+02  d E =-.350475E-02
       N       E                     dE             d eps       ncg     rms          rms(c)
DAV:   1    -0.788226822945E+02   -0.96576E-02   -0.18401E-01  2016   0.184E+00    0.694E-02
RMM:   2    -0.788229659195E+02   -0.28363E-03   -0.36307E-03  2454   0.365E-01    0.439E-02
RMM:   3    -0.788230433627E+02   -0.77443E-04   -0.95810E-04  2278   0.127E-01    0.330E-02
RMM:   4    -0.788230577064E+02   -0.14344E-04   -0.13288E-04  1896   0.660E-02    0.284E-02
RMM:   5    -0.788230455298E+02    0.12177E-04   -0.24601E-05  1415   0.322E-02    0.195E-02
RMM:   6    -0.788230432591E+02    0.22707E-05   -0.29135E-05  1453   0.352E-02
  70 F= -.81917169E+02 E0= -.81922296E+02  d E =-.139524E-01
       N       E                     dE             d eps       ncg     rms          rms(c)
DAV:   1    -0.788412498567E+02   -0.18204E-01   -0.73268E-01  2000   0.366E+00    0.139E-01
RMM:   2    -0.788424965774E+02   -0.12467E-02   -0.14712E-02  2415   0.737E-01    0.825E-02
RMM:   3    -0.788428426529E+02   -0.34608E-03   -0.37426E-03  2576   0.254E-01    0.654E-02
RMM:   4    -0.788428238607E+02    0.18792E-04   -0.51268E-04  2383   0.102E-01    0.587E-02
RMM:   5    -0.788427748029E+02    0.49058E-04   -0.86826E-05  1834   0.502E-02    0.386E-02
RMM:   6    -0.788427750609E+02   -0.25800E-06   -0.14122E-04  1888   0.572E-02    0.136E-02
RMM:   7    -0.788427756087E+02   -0.54782E-06   -0.16689E-05  1332   0.328E-02
  71 F= -.81937770E+02 E0= -.81942905E+02  d E =-.345539E-01
       N       E                     dE             d eps       ncg     rms          rms(c)
DAV:   1    -0.788747654142E+02   -0.31990E-01   -0.29385E+00  2000   0.733E+00    0.271E-01
RMM:   2    -0.788797883730E+02   -0.50230E-02   -0.58247E-02  2453   0.147E+00    0.165E-01
RMM:   3    -0.788811601625E+02   -0.13718E-02   -0.15165E-02  2668   0.498E-01    0.126E-01
RMM:   4    -0.788812028305E+02   -0.42668E-04   -0.20270E-03  2614   0.191E-01    0.116E-01
RMM:   5    -0.788809404034E+02    0.26243E-03   -0.32805E-04  2237   0.869E-02    0.751E-02
RMM:   6    -0.788809269097E+02    0.13494E-04   -0.60524E-04  2367   0.105E-01    0.293E-02
RMM:   7    -0.788809226511E+02    0.42587E-05   -0.43697E-05  1610   0.422E-02
  72 F= -.81977632E+02 E0= -.81982780E+02  d E =-.744154E-01
       N       E                     dE             d eps       ncg     rms          rms(c)
[...]
RMM:   6    -0.804133969341E+02    0.30809E-04   -0.11886E-04  1999   0.569E-02    0.159E-02
RMM:   7    -0.804133941452E+02    0.27889E-05   -0.20502E-05  1400   0.359E-02
 109 F= -.83541306E+02 E0= -.83547299E+02  d E =-.237499E-01
       N       E                     dE             d eps       ncg     rms          rms(c)
DAV:   1    -0.804185375017E+02   -0.51406E-02   -0.27882E-01  2320   0.199E+00    0.138E-01
RMM:   2    -0.804190214985E+02   -0.48400E-03   -0.93809E-03  2533   0.532E-01    0.825E-02
RMM:   3    -0.804191491912E+02   -0.12769E-03   -0.16438E-03  2518   0.166E-01    0.582E-02
RMM:   4    -0.804191539278E+02   -0.47366E-05   -0.25999E-04  2095   0.836E-02    0.457E-02
RMM:   5    -0.804191003348E+02    0.53593E-04   -0.82728E-05  1795   0.514E-02    0.192E-02
RMM:   6    -0.804191017490E+02   -0.14141E-05   -0.42840E-05  1603   0.411E-02
 110 F= -.83545600E+02 E0= -.83551623E+02  d E =-.429449E-02
       N       E                     dE             d eps       ncg     rms          rms(c)
DAV:   1    -0.804241963732E+02   -0.50960E-02   -0.25173E+00  2000   0.595E+00    0.404E-01
RMM:   2    -0.804288212364E+02   -0.46249E-02   -0.85334E-02  2528   0.158E+00    0.243E-01
RMM:   3    -0.804299026335E+02   -0.10814E-02   -0.14102E-02  2700   0.489E-01    0.166E-01
RMM:   4    -0.804300742852E+02   -0.17165E-03   -0.20908E-03  2495   0.223E-01    0.131E-01
RMM:   5    -0.804295485099E+02    0.52578E-03   -0.76622E-04  2355   0.147E-01    0.491E-02
RMM:   6    -0.804295458760E+02    0.26339E-05   -0.32860E-04  2288   0.976E-02    0.224E-02
RMM:   7    -0.804295415777E+02    0.42983E-05   -0.84894E-05  1794   0.503E-02
 111 F= -.83551809E+02 E0= -.83557921E+02  d E =-.105033E-01
       N       E                     dE             d eps       ncg     rms          rms(c)
DAV:   1    -0.804300564716E+02   -0.51060E-03   -0.43740E-02  2408   0.784E-01    0.555E-02
RMM:   2    -0.804301449661E+02   -0.88495E-04   -0.15866E-03  2525   0.217E-01    0.326E-02
RMM:   3    -0.804301664756E+02   -0.21510E-04   -0.25485E-04  1954   0.664E-02    0.245E-02
RMM:   4    -0.804301702289E+02   -0.37532E-05   -0.37694E-05  1462   0.433E-02
 112 F= -.83551883E+02 E0= -.83557991E+02  d E =-.105772E-01
       N       E                     dE             d eps       ncg     rms          rms(c)
DAV:   1    -0.804325718927E+02   -0.24054E-02   -0.52662E-02  2288   0.850E-01    0.585E-02
RMM:   2    -0.804327269488E+02   -0.15506E-03   -0.18911E-03  2515   0.245E-01    0.464E-02
RMM:   3    -0.804327594240E+02   -0.32475E-04   -0.36281E-04  1980   0.760E-02    0.345E-02
RMM:   4    -0.804327734760E+02   -0.14052E-04   -0.51846E-05  1612   0.463E-02    0.269E-02
RMM:   5    -0.804327576936E+02    0.15782E-04   -0.29143E-05  1420   0.338E-02    0.101E-02
RMM:   6    -0.804327606369E+02   -0.29434E-05   -0.13385E-05  1316   0.272E-02
 113 F= -.83553840E+02 E0= -.83559959E+02  d E =-.195707E-02
       N       E                     dE             d eps       ncg     rms          rms(c)
DAV:   1    -0.804380387853E+02   -0.52811E-02   -0.47489E-01  2000   0.254E+00    0.166E-01
RMM:   2    -0.804394960488E+02   -0.14573E-02   -0.16836E-02  2422   0.737E-01    0.128E-01
RMM:   3    -0.804398276610E+02   -0.33161E-03   -0.36880E-03  2629   0.241E-01    0.915E-02
RMM:   4    -0.804399551430E+02   -0.12748E-03   -0.49203E-04  2382   0.104E-01    0.693E-02
RMM:   5    -0.804398172150E+02    0.13793E-03   -0.26489E-04  2137   0.799E-02    0.354E-02
RMM:   6    -0.804398091887E+02    0.80263E-05   -0.11285E-04  1893   0.645E-02    0.140E-02
RMM:   7    -0.804398071393E+02    0.20494E-05   -0.15796E-05  1351   0.304E-02
 114 F= -.83558989E+02 E0= -.83565110E+02  d E =-.710628E-02
       N       E                     dE             d eps       ncg     rms          rms(c)
DAV:   1    -0.804436033319E+02   -0.37941E-02   -0.18982E+00  2000   0.509E+00    0.329E-01
RMM:   2    -0.804494041023E+02   -0.58008E-02   -0.66822E-02  2434   0.146E+00    0.250E-01
RMM:   3    -0.804507145389E+02   -0.13104E-02   -0.14529E-02  2694   0.479E-01    0.177E-01
RMM:   4    -0.804512721860E+02   -0.55765E-03   -0.19935E-03  2572   0.202E-01    0.135E-01
RMM:   5    -0.804506980008E+02    0.57419E-03   -0.10452E-03  2417   0.150E-01    0.618E-02
RMM:   6    -0.804506623656E+02    0.35635E-04   -0.38223E-04  2322   0.105E-01    0.264E-02
RMM:   7    -0.804506539324E+02    0.84333E-05   -0.61122E-05  1695   0.491E-02
 115 F= -.83566053E+02 E0= -.83572171E+02  d E =-.141705E-01
       N       E                     dE             d eps       ncg     rms          rms(c)
DAV:   1    -0.804318683639E+02    0.18794E-01   -0.75311E+00  2000   0.102E+01    0.646E-01
RMM:   2    -0.804549552037E+02   -0.23087E-01   -0.26412E-01  2425   0.288E+00    0.476E-01
RMM:   3    -0.804598180034E+02   -0.48628E-02   -0.53796E-02  2678   0.933E-01    0.334E-01
RMM:   4    -0.804619218999E+02   -0.21039E-02   -0.78574E-03  2602   0.401E-01    0.256E-01
RMM:   5    -0.804598100277E+02    0.21119E-02   -0.38544E-03  2452   0.290E-01    0.113E-01
RMM:   6    -0.804596138449E+02    0.19618E-03   -0.13695E-03  2406   0.197E-01    0.466E-02
RMM:   7    -0.804595994340E+02    0.14411E-04   -0.26047E-04  2207   0.837E-02    0.264E-02
RMM:   8    -0.804596021377E+02   -0.27037E-05   -0.80000E-05  1858   0.413E-02
 116 F= -.83567482E+02 E0= -.83573576E+02  d E =-.155995E-01
       N       E                     dE             d eps       ncg     rms          rms(c)
DAV:   1    -0.804530226681E+02    0.65768E-02   -0.13127E+00  2000   0.427E+00    0.288E-01
RMM:   2    -0.804571212629E+02   -0.40986E-02   -0.46934E-02  2411   0.127E+00    0.212E-01
RMM:   3    -0.804580011016E+02   -0.87984E-03   -0.99731E-03  2698   0.401E-01    0.153E-01
RMM:   4    -0.804583233292E+02   -0.32223E-03   -0.14305E-03  2547   0.171E-01    0.119E-01
RMM:   5    -0.804579673508E+02    0.35598E-03   -0.74333E-04  2391   0.125E-01    0.597E-02
RMM:   6    -0.804579493310E+02    0.18020E-04   -0.34868E-04  2294   0.932E-02    0.273E-02
RMM:   7    -0.804579398508E+02    0.94802E-05   -0.44326E-05  1629   0.494E-02
 117 F= -.83568964E+02 E0= -.83575066E+02  d E =-.170814E-01
       N       E                     dE             d eps       ncg     rms          rms(c)
DAV:   1    -0.804611527976E+02   -0.32035E-02   -0.56425E-01  2000   0.286E+00    0.220E-01
RMM:   2    -0.804632362557E+02   -0.20835E-02   -0.24614E-02  2531   0.841E-01    0.121E-01
RMM:   3    -0.804635515347E+02   -0.31528E-03   -0.34616E-03  2693   0.255E-01    0.912E-02
RMM:   4    -0.804634111982E+02    0.14034E-03   -0.65804E-04  2438   0.120E-01    0.659E-02
RMM:   5    -0.804633250655E+02    0.86133E-04   -0.30768E-04  2321   0.745E-02    0.257E-02
RMM:   6    -0.804633063479E+02    0.18718E-04   -0.69248E-05  1787   0.566E-02    0.887E-03
RMM:   7    -0.804633089913E+02   -0.26434E-05   -0.22430E-05  1451   0.268E-02
 118 F= -.83571465E+02 E0= -.83577564E+02  d E =-.250112E-02
       N       E                     dE             d eps       ncg     rms          rms(c)
DAV:   1    -0.804628205017E+02    0.48585E-03   -0.22891E-02  2400   0.576E-01    0.455E-02
RMM:   2    -0.804629028773E+02   -0.82376E-04   -0.95465E-04  2554   0.168E-01    0.237E-02
RMM:   3    -0.804629192383E+02   -0.16361E-04   -0.14038E-04  1683   0.521E-02    0.184E-02
RMM:   4    -0.804629125118E+02    0.67265E-05   -0.29232E-05  1400   0.425E-02
 119 F= -.83571647E+02 E0= -.83577740E+02  d E =-.268251E-02
       N       E                     dE             d eps       ncg     rms          rms(c)
DAV:   1    -0.804674987222E+02   -0.45795E-02   -0.18043E-01  2016   0.162E+00    0.133E-01
RMM:   2    -0.804680977138E+02   -0.59899E-03   -0.76702E-03  2462   0.511E-01    0.601E-02
RMM:   3    -0.804682324151E+02   -0.13470E-03   -0.13210E-03  2641   0.171E-01    0.483E-02
RMM:   4    -0.804681790618E+02    0.53353E-04   -0.24533E-04  2236   0.742E-02    0.347E-02
RMM:   5    -0.804681540537E+02    0.25008E-04   -0.53701E-05  1721   0.377E-02    0.205E-02
RMM:   6    -0.804681516984E+02    0.23553E-05   -0.35315E-05  1503   0.390E-02
 120 F= -.83574972E+02 E0= -.83581049E+02  d E =-.332511E-02
       N       E                     dE             d eps       ncg     rms          rms(c)
DAV:   1    -0.804740964712E+02   -0.59424E-02   -0.16179E+00  2000   0.486E+00    0.398E-01
RMM:   2    -0.804796080628E+02   -0.55116E-02   -0.69401E-02  2471   0.152E+00    0.184E-01
RMM:   3    -0.804808092288E+02   -0.12012E-02   -0.11441E-02  2708   0.496E-01    0.145E-01
RMM:   4    -0.804803312251E+02    0.47800E-03   -0.21553E-03  2506   0.207E-01    0.104E-01
RMM:   5    -0.804801030583E+02    0.22817E-03   -0.60075E-04  2607   0.109E-01    0.567E-02
RMM:   6    -0.804800681831E+02    0.34875E-04   -0.26932E-04  2262   0.945E-02    0.201E-02
RMM:   7    -0.804800714578E+02   -0.32747E-05   -0.54367E-05  1682   0.417E-02
 121 F= -.83581202E+02 E0= -.83587213E+02  d E =-.955560E-02
       N       E                     dE             d eps       ncg     rms          rms(c)
DAV:   1    -0.804636689031E+02    0.16399E-01   -0.64865E+00  2000   0.974E+00    0.777E-01
RMM:   2    -0.804860362202E+02   -0.22367E-01   -0.27718E-01  2487   0.298E+00    0.370E-01
RMM:   3    -0.804907624860E+02   -0.47263E-02   -0.41684E-02  2702   0.947E-01    0.295E-01
RMM:   4    -0.804883605246E+02    0.24020E-02   -0.82760E-03  2513   0.409E-01    0.200E-01
RMM:   5    -0.804875403598E+02    0.82016E-03   -0.26069E-03  2699   0.224E-01    0.989E-02
RMM:   6    -0.804873737887E+02    0.16657E-03   -0.87057E-04  2369   0.172E-01    0.366E-02
RMM:   7    -0.804873895688E+02   -0.15780E-04   -0.23132E-04  2228   0.716E-02    0.198E-02
RMM:   8    -0.804873984438E+02   -0.88750E-05   -0.49178E-05  1662   0.393E-02
 122 F= -.83577373E+02 E0= -.83583165E+02  d E =-.572626E-02
       N       E                     dE             d eps       ncg     rms          rms(c)
DAV:   1    -0.804742757989E+02    0.13114E-01   -0.29250E+00  2000   0.651E+00    0.580E-01
RMM:   2    -0.804836766977E+02   -0.94009E-02   -0.12157E-01  2496   0.207E+00    0.240E-01
RMM:   3    -0.804857573181E+02   -0.20806E-02   -0.23832E-02  2698   0.683E-01    0.190E-01
RMM:   4    -0.804854040817E+02    0.35324E-03   -0.38460E-03  2500   0.276E-01    0.155E-01
RMM:   5    -0.804849818892E+02    0.42219E-03   -0.90879E-04  2637   0.137E-01    0.998E-02
RMM:   6    -0.804849151623E+02    0.66727E-04   -0.84647E-04  2409   0.149E-01    0.374E-02
RMM:   7    -0.804848927801E+02    0.22382E-04   -0.11841E-04  2009   0.666E-02    0.132E-02
RMM:   8    -0.804848926151E+02    0.16500E-06   -0.47222E-05  1663   0.362E-02
 123 F= -.83582344E+02 E0= -.83588296E+02  d E =-.106971E-01
       N       E                     dE             d eps       ncg     rms          rms(c)
DAV:   1    -0.804877325610E+02   -0.28398E-02   -0.74213E-01  2000   0.326E+00    0.203E-01
RMM:   2    -0.804893204111E+02   -0.15879E-02   -0.22076E-02  2425   0.871E-01    0.164E-01
RMM:   3    -0.804896199341E+02   -0.29952E-03   -0.40286E-03  2619   0.277E-01    0.113E-01
RMM:   4    -0.804896083081E+02    0.11626E-04   -0.60793E-04  2456   0.120E-01    0.555E-02
RMM:   5    -0.804895750922E+02    0.33216E-04   -0.22400E-04  2149   0.844E-02    0.279E-02
RMM:   6    -0.804895745939E+02    0.49832E-06   -0.81362E-05  1818   0.467E-02
 124 F= -.83585106E+02 E0= -.83590959E+02  d E =-.276186E-02
       N       E                     dE             d eps       ncg     rms          rms(c)
DAV:   1    -0.804895079521E+02    0.67140E-04   -0.68312E-01  2016   0.313E+00    0.192E-01
RMM:   2    -0.804910234615E+02   -0.15155E-02   -0.20643E-02  2386   0.846E-01    0.154E-01
RMM:   3    -0.804913111766E+02   -0.28772E-03   -0.37893E-03  2629   0.272E-01    0.107E-01
RMM:   4    -0.804913268608E+02   -0.15684E-04   -0.56680E-04  2451   0.116E-01    0.569E-02
RMM:   5    -0.804913107051E+02    0.16156E-04   -0.25807E-04  2200   0.817E-02    0.348E-02
RMM:   6    -0.804912759000E+02    0.34805E-04   -0.91077E-05  1873   0.531E-02    0.180E-02
RMM:   7    -0.804912661234E+02    0.97766E-05   -0.20105E-05  1370   0.341E-02
 125 F= -.83584965E+02 E0= -.83590747E+02  d E =-.262125E-02
       N       E                     dE             d eps       ncg     rms          rms(c)
DAV:   1    -0.804903288178E+02    0.94708E-03   -0.16500E-01  2336   0.154E+00    0.967E-02
RMM:   2    -0.804907075206E+02   -0.37870E-03   -0.51532E-03  2398   0.420E-01    0.776E-02
RMM:   3    -0.804907777618E+02   -0.70241E-04   -0.90582E-04  2386   0.131E-01    0.555E-02
RMM:   4    -0.804907797505E+02   -0.19888E-05   -0.12361E-04  1889   0.656E-02    0.287E-02
RMM:   5    -0.804907829998E+02   -0.32492E-05   -0.57331E-05  1709   0.435E-02
 126 F= -.83585380E+02 E0= -.83591193E+02  d E =-.303631E-02
       N       E                     dE             d eps       ncg     rms          rms(c)
DAV:   1    -0.804934967210E+02   -0.27170E-02   -0.17956E-01  2032   0.163E+00    0.118E-01
RMM:   2    -0.804940031534E+02   -0.50643E-03   -0.65319E-03  2527   0.468E-01    0.696E-02
RMM:   3    -0.804940775259E+02   -0.74372E-04   -0.10823E-03  2509   0.132E-01    0.413E-02
RMM:   4    -0.804941205494E+02   -0.43024E-04   -0.23026E-04  2226   0.855E-02    0.329E-02
RMM:   5    -0.804940713686E+02    0.49181E-04   -0.52294E-05  1647   0.431E-02    0.126E-02
RMM:   6    -0.804940683149E+02    0.30538E-05   -0.21805E-05  1406   0.318E-02
 127 F= -.83587362E+02 E0= -.83593123E+02  d E =-.198135E-02
       N       E                     dE             d eps       ncg     rms          rms(c)
DAV:   1    -0.804950529083E+02   -0.98154E-03   -0.84231E-02  2032   0.112E+00    0.827E-02
RMM:   2    -0.804953185494E+02   -0.26564E-03   -0.31675E-03  2529   0.331E-01    0.505E-02
RMM:   3    -0.804954025147E+02   -0.83965E-04   -0.63807E-04  2486   0.106E-01    0.417E-02
RMM:   4    -0.804953526666E+02    0.49848E-04   -0.11856E-04  1935   0.602E-02    0.266E-02
RMM:   5    -0.804953439228E+02    0.87438E-05   -0.44115E-05  1634   0.340E-02
 128 F= -.83587743E+02 E0= -.83593465E+02  d E =-.236295E-02
       N       E                     dE             d eps       ncg     rms          rms(c)
DAV:   1    -0.804959203290E+02   -0.56766E-03   -0.43101E-03  2416   0.263E-01    0.316E-02
RMM:   2    -0.804959404812E+02   -0.20152E-04   -0.26551E-04  2497   0.857E-02    0.201E-02
RMM:   3    -0.804959397330E+02    0.74825E-06   -0.23091E-05  1326   0.285E-02
 129 F= -.83588093E+02 E0= -.83593817E+02  d E =-.349464E-03
       N       E                     dE             d eps       ncg     rms          rms(c)
DAV:   1    -0.804966591841E+02   -0.71870E-03   -0.17348E-02  2016   0.519E-01    0.701E-02
RMM:   2    -0.804967360781E+02   -0.76894E-04   -0.97506E-04  2656   0.174E-01    0.433E-02
RMM:   3    -0.804967756299E+02   -0.39552E-04   -0.14969E-04  2136   0.581E-02    0.351E-02
RMM:   4    -0.804967215154E+02    0.54114E-04   -0.48513E-05  1644   0.478E-02    0.127E-02
RMM:   5    -0.804967183867E+02    0.31287E-05   -0.17670E-05  1369   0.252E-02
 130 F= -.83588372E+02 E0= -.83594104E+02  d E =-.628788E-03
       N       E                     dE             d eps       ncg     rms          rms(c)
DAV:   1    -0.804970421112E+02   -0.32060E-03   -0.78530E-04  2576   0.113E-01    0.137E-02
RMM:   2    -0.804970444044E+02   -0.22932E-05   -0.46433E-05  1521   0.407E-02
 131 F= -.83588556E+02 E0= -.83594290E+02  d E =-.183902E-03
       N       E                     dE             d eps       ncg     rms          rms(c)
DAV:   1    -0.804978541039E+02   -0.81199E-03   -0.67948E-03  2000   0.323E-01    0.452E-02
RMM:   2    -0.804978983277E+02   -0.44224E-04   -0.52210E-04  2661   0.127E-01    0.250E-02
RMM:   3    -0.804979008841E+02   -0.25563E-05   -0.10035E-04  2031   0.447E-02    0.238E-02
RMM:   4    -0.804978762171E+02    0.24667E-04   -0.16999E-05  1365   0.356E-02    0.104E-02
RMM:   5    -0.804978746562E+02    0.15609E-05   -0.11409E-05  1291   0.244E-02
 132 F= -.83588960E+02 E0= -.83594706E+02  d E =-.588407E-03
       N       E                     dE             d eps       ncg     rms          rms(c)
DAV:   1    -0.804987566442E+02   -0.88043E-03   -0.26366E-02  2000   0.632E-01    0.809E-02
RMM:   2    -0.804988706718E+02   -0.11403E-03   -0.18571E-03  2615   0.252E-01    0.366E-02
RMM:   3    -0.804989038920E+02   -0.33220E-04   -0.31694E-04  2404   0.736E-02    0.275E-02
RMM:   4    -0.804988762482E+02    0.27644E-04   -0.55617E-05  1723   0.468E-02    0.198E-02
RMM:   5    -0.804988672131E+02    0.90352E-05   -0.20250E-05  1370   0.330E-02
 133 F= -.83589104E+02 E0= -.83594868E+02  d E =-.731941E-03
       N       E                     dE             d eps       ncg     rms          rms(c)
DAV:   1    -0.804986301685E+02    0.24608E-03   -0.30057E-03  2032   0.213E-01    0.282E-02
RMM:   2    -0.804986419151E+02   -0.11747E-04   -0.19821E-04  2345   0.841E-02    0.136E-02
RMM:   3    -0.804986468760E+02   -0.49609E-05   -0.37976E-05  1547   0.303E-02
 134 F= -.83589163E+02 E0= -.83594911E+02  d E =-.791296E-03
       N       E                     dE             d eps       ncg     rms          rms(c)
DAV:   1    -0.804988481385E+02   -0.20622E-03   -0.19016E-03  2400   0.178E-01    0.184E-02
RMM:   2    -0.804988571328E+02   -0.89942E-05   -0.84812E-05  1848   0.543E-02
 135 F= -.83589279E+02 E0= -.83595030E+02  d E =-.116289E-03
       N       E                     dE             d eps       ncg     rms          rms(c)
DAV:   1    -0.804993065851E+02   -0.45845E-03   -0.16879E-02  2016   0.514E-01    0.479E-02
RMM:   2    -0.804993731532E+02   -0.66568E-04   -0.75071E-04  2528   0.166E-01    0.430E-02
RMM:   3    -0.804993644766E+02    0.86766E-05   -0.14309E-04  2000   0.538E-02    0.348E-02
RMM:   4    -0.804993556584E+02    0.88182E-05   -0.16989E-05  1342   0.364E-02
 136 F= -.83589497E+02 E0= -.83595252E+02  d E =-.333344E-03
       N       E                     dE             d eps       ncg     rms          rms(c)
DAV:   1    -0.804995379485E+02   -0.17347E-03   -0.65568E-02  2000   0.100E+00    0.853E-02
RMM:   2    -0.804996908341E+02   -0.15289E-03   -0.23855E-03  2384   0.334E-01    0.753E-02
RMM:   3    -0.804997492064E+02   -0.58372E-04   -0.72777E-04  2390   0.106E-01    0.593E-02
RMM:   4    -0.804997519707E+02   -0.27643E-05   -0.10527E-04  1921   0.631E-02    0.437E-02
RMM:   5    -0.804997219072E+02    0.30063E-04   -0.54379E-05  1712   0.397E-02    0.214E-02
RMM:   6    -0.804997187303E+02    0.31769E-05   -0.20119E-05  1390   0.348E-02
 137 F= -.83589299E+02 E0= -.83595060E+02  d E =-.135575E-03
       N       E                     dE             d eps       ncg     rms          rms(c)
DAV:   1    -0.804994455601E+02    0.27635E-03   -0.33627E-02  2016   0.719E-01    0.550E-02
RMM:   2    -0.804995282970E+02   -0.82737E-04   -0.12447E-03  2443   0.238E-01    0.512E-02
RMM:   3    -0.804995570836E+02   -0.28787E-04   -0.35315E-04  2096   0.744E-02    0.418E-02
RMM:   4    -0.804995596561E+02   -0.25725E-05   -0.46201E-05  1613   0.525E-02
 138 F= -.83589537E+02 E0= -.83595311E+02  d E =-.373371E-03
       N       E                     dE             d eps       ncg     rms          rms(c)
DAV:   1    -0.804997369002E+02   -0.17982E-03   -0.72953E-04  2560   0.113E-01    0.182E-02
RMM:   2    -0.804997376716E+02   -0.77141E-06   -0.49371E-05  1764   0.487E-02
 139 F= -.83589631E+02 E0= -.83595398E+02  d E =-.940865E-04
       N       E                     dE             d eps       ncg     rms          rms(c)
DAV:   1    -0.805001584877E+02   -0.42159E-03   -0.55241E-03  2048   0.295E-01    0.350E-02
RMM:   2    -0.805001828788E+02   -0.24391E-04   -0.39729E-04  2671   0.110E-01    0.213E-02
RMM:   3    -0.805001800537E+02    0.28251E-05   -0.55459E-05  1627   0.390E-02
 140 F= -.83589822E+02 E0= -.83595578E+02  d E =-.285181E-03
