       N       E                     dE             d eps       ncg     rms          rms(c)
DAV:   1     0.267156704574E+04    0.26716E+04   -0.82655E+04  6824   0.191E+03
DAV:   2     0.426847037504E+03   -0.22447E+04   -0.21685E+04  6928   0.612E+02
DAV:   3    -0.257376024815E+02   -0.45258E+03   -0.42483E+03  7608   0.246E+02
DAV:   4    -0.809357877322E+02   -0.55198E+02   -0.52539E+02  9120   0.842E+01
DAV:   5    -0.841555803720E+02   -0.32198E+01   -0.31420E+01  9720   0.201E+01    0.168E+01
DAV:   6    -0.764613388794E+02    0.76942E+01   -0.24248E+01  9576   0.219E+01    0.642E+00
DAV:   7    -0.768953320649E+02   -0.43399E+00   -0.84678E+00  7912   0.202E+01    0.518E+00
DAV:   8    -0.761798384034E+02    0.71549E+00   -0.64748E+00  8256   0.112E+01    0.374E+00
DAV:   9    -0.757837779449E+02    0.39606E+00   -0.13506E+00  8584   0.995E+00    0.173E+00
DAV:  10    -0.757134654519E+02    0.70312E-01   -0.44394E-01  8472   0.546E+00    0.643E-01
DAV:  11    -0.756935325646E+02    0.19933E-01   -0.12477E-01  8552   0.472E+00    0.339E-01
DAV:  12    -0.756915586050E+02    0.19740E-02   -0.53179E-02  8336   0.120E+00    0.217E-01
DAV:  13    -0.756893726911E+02    0.21859E-02   -0.68286E-03  8352   0.108E+00    0.151E-01
DAV:  14    -0.756874860630E+02    0.18866E-02   -0.50905E-03  8488   0.699E-01    0.903E-02
DAV:  15    -0.756872049874E+02    0.28108E-03   -0.24197E-03  7936   0.378E-01    0.624E-02
DAV:  16    -0.756874118526E+02   -0.20687E-03   -0.12692E-03  7712   0.282E-01    0.426E-02
DAV:  17    -0.756875155534E+02   -0.10370E-03   -0.56788E-04  7520   0.347E-01    0.335E-02
DAV:  18    -0.756876877457E+02   -0.17219E-03   -0.21567E-04  8240   0.134E-01    0.173E-02
DAV:  19    -0.756881110269E+02   -0.42328E-03   -0.24982E-04  6568   0.103E-01    0.121E-02
DAV:  20    -0.756882491369E+02   -0.13811E-03   -0.10939E-04  6776   0.790E-02    0.101E-02
DAV:  21    -0.756887660027E+02   -0.51687E-03   -0.64262E-05  6512   0.597E-02    0.695E-03
DAV:  22    -0.756891322507E+02   -0.36625E-03   -0.44398E-05  5248   0.549E-02    0.402E-03
DAV:  23    -0.756892961039E+02   -0.16385E-03   -0.23015E-05  5232   0.298E-02    0.239E-03
DAV:  24    -0.756893581612E+02   -0.62057E-04   -0.62932E-06  5240   0.121E-02    0.156E-03
DAV:  25    -0.756893897174E+02   -0.31556E-04   -0.35099E-06  4864   0.141E-02    0.786E-04
DAV:  26    -0.756894010182E+02   -0.11301E-04   -0.14248E-06  4792   0.737E-03    0.417E-04
DAV:  27    -0.756894019915E+02   -0.97328E-06   -0.57238E-07  4464   0.377E-03
   1 F= -.78733752E+02 E0= -.78730583E+02  d E =-.950725E-02
       N       E                     dE             d eps       ncg     rms          rms(c)
DAV:   1    -0.756886458752E+02    0.75514E-03   -0.12561E-01  6104   0.502E-01    0.939E-02
DAV:   2    -0.756890088799E+02   -0.36300E-03   -0.33594E-03  7256   0.121E-01    0.629E-02
DAV:   3    -0.756890471943E+02   -0.38314E-04   -0.80898E-05  6512   0.595E-02    0.183E-02
DAV:   4    -0.756890656596E+02   -0.18465E-04   -0.56619E-05  5608   0.103E-01    0.148E-02
DAV:   5    -0.756890523707E+02    0.13289E-04   -0.31431E-05  4744   0.761E-02    0.223E-03
DAV:   6    -0.756890532260E+02   -0.85523E-06   -0.29705E-06  4224   0.101E-02
   2 F= -.78733407E+02 E0= -.78730238E+02  d E =-.950453E-02
       N       E                     dE             d eps       ncg     rms          rms(c)
DAV:   1    -0.756874391171E+02    0.16133E-02   -0.50117E-01  5992   0.100E+00    0.188E-01
DAV:   2    -0.756888840690E+02   -0.14450E-02   -0.13411E-02  7536   0.250E-01    0.126E-01
DAV:   3    -0.756890258469E+02   -0.14178E-03   -0.28534E-04  7216   0.111E-01    0.360E-02
DAV:   4    -0.756890564571E+02   -0.30610E-04   -0.74986E-05  6384   0.962E-02    0.119E-02
DAV:   5    -0.756890496841E+02    0.67729E-05   -0.33956E-05  5528   0.732E-02
   3 F= -.78733403E+02 E0= -.78730239E+02  d E =-.949107E-02
       N       E                     dE             d eps       ncg     rms          rms(c)
DAV:   1    -0.756882309309E+02    0.82553E-03   -0.25060E-01  5928   0.710E-01    0.133E-01
DAV:   2    -0.756889699133E+02   -0.73898E-03   -0.69116E-03  7440   0.177E-01    0.892E-02
DAV:   3    -0.756890402298E+02   -0.70316E-04   -0.14722E-04  6752   0.771E-02    0.276E-02
DAV:   4    -0.756890702317E+02   -0.30002E-04   -0.87082E-05  6360   0.118E-01    0.176E-02
DAV:   5    -0.756890516819E+02    0.18550E-04   -0.48118E-05  5440   0.928E-02    0.403E-03
DAV:   6    -0.756890523497E+02   -0.66781E-06   -0.44974E-06  4392   0.138E-02
   4 F= -.78733406E+02 E0= -.78730236E+02  d E =-.950836E-02
       N       E                     dE             d eps       ncg     rms          rms(c)
DAV:   1    -0.756874213632E+02    0.16303E-02   -0.50109E-01  5872   0.100E+00    0.188E-01
DAV:   2    -0.756888939768E+02   -0.14726E-02   -0.13634E-02  7520   0.251E-01    0.126E-01
DAV:   3    -0.756890262944E+02   -0.13232E-03   -0.27733E-04  7296   0.111E-01    0.380E-02
DAV:   4    -0.756890543032E+02   -0.28009E-04   -0.64301E-05  6384   0.818E-02    0.101E-02
DAV:   5    -0.756890512498E+02    0.30535E-05   -0.25851E-05  5272   0.640E-02
   5 F= -.78733405E+02 E0= -.78730244E+02  d E =-.948223E-02
       N       E                     dE             d eps       ncg     rms          rms(c)
DAV:   1    -0.756814323344E+02    0.76220E-02   -0.26690E-01  6152   0.762E-01    0.244E-01
DAV:   2    -0.756817553307E+02   -0.32300E-03   -0.12683E-02  6976   0.523E-01    0.144E-01
DAV:   3    -0.756822377714E+02   -0.48244E-03   -0.55850E-03  7456   0.832E-01    0.130E-01
DAV:   4    -0.756817081766E+02    0.52959E-03   -0.20985E-03  7592   0.591E-01    0.736E-02
DAV:   5    -0.756816815432E+02    0.26633E-04   -0.23407E-04  7880   0.143E-01    0.240E-02
DAV:   6    -0.756816856277E+02   -0.40845E-05   -0.93155E-05  7600   0.887E-02
   6 F= -.78725925E+02 E0= -.78722775E+02  d E =-.945216E-02
       N       E                     dE             d eps       ncg     rms          rms(c)
DAV:   1    -0.756813839031E+02    0.29764E-03   -0.57008E-01  6216   0.116E+00    0.439E-01
DAV:   2    -0.756832143406E+02   -0.18304E-02   -0.50552E-02  8520   0.995E-01    0.270E-01
DAV:   3    -0.756844146164E+02   -0.12003E-02   -0.17501E-02  8032   0.159E+00    0.248E-01
DAV:   4    -0.756825686308E+02    0.18460E-02   -0.66701E-03  8024   0.965E-01    0.143E-01
DAV:   5    -0.756823919153E+02    0.17672E-03   -0.85084E-04  7632   0.258E-01    0.444E-02
DAV:   6    -0.756824086943E+02   -0.16779E-04   -0.35587E-04  7960   0.166E-01    0.270E-02
DAV:   7    -0.756823905974E+02    0.18097E-04   -0.70956E-05  7808   0.642E-02    0.114E-02
DAV:   8    -0.756823892136E+02    0.13837E-05   -0.17878E-05  5568   0.376E-02
   7 F= -.78726862E+02 E0= -.78723649E+02  d E =-.963769E-02
       N       E                     dE             d eps       ncg     rms          rms(c)
DAV:   1    -0.756838689509E+02   -0.14784E-02   -0.16975E+00  6040   0.232E+00    0.247E-01
DAV:   2    -0.756883652832E+02   -0.44963E-02   -0.57108E-02  7416   0.805E-01    0.167E-01
DAV:   3    -0.756888218093E+02   -0.45653E-03   -0.82068E-03  7992   0.858E-01    0.144E-01
DAV:   4    -0.756884178793E+02    0.40393E-03   -0.22969E-03  8392   0.599E-01    0.105E-01
DAV:   5    -0.756883244526E+02    0.93427E-04   -0.48396E-04  8336   0.160E-01    0.453E-02
DAV:   6    -0.756883443936E+02   -0.19941E-04   -0.26403E-04  8000   0.141E-01    0.235E-02
DAV:   7    -0.756883334923E+02    0.10901E-04   -0.70426E-05  7800   0.715E-02    0.129E-02
DAV:   8    -0.756883327471E+02    0.74519E-06   -0.16895E-05  5152   0.310E-02
   8 F= -.78732677E+02 E0= -.78729529E+02  d E =-.944397E-02
       N       E                     dE             d eps       ncg     rms          rms(c)
DAV:   1    -0.756749640889E+02    0.13369E-01   -0.62096E+00  6424   0.431E+00    0.280E-01
DAV:   2    -0.756887083693E+02   -0.13744E-01   -0.14944E-01  7856   0.111E+00    0.168E-01
DAV:   3    -0.756884575490E+02    0.25082E-03   -0.39031E-03  7680   0.395E-01    0.105E-01
DAV:   4    -0.756885949865E+02   -0.13744E-03   -0.21802E-03  8008   0.564E-01    0.801E-02
DAV:   5    -0.756883165202E+02    0.27847E-03   -0.14894E-03  8112   0.442E-01    0.319E-02
DAV:   6    -0.756883194209E+02   -0.29007E-05   -0.23391E-04  7896   0.160E-01    0.221E-02
DAV:   7    -0.756883256361E+02   -0.62152E-05   -0.11130E-04  8544   0.583E-02    0.143E-02
DAV:   8    -0.756883263252E+02   -0.68905E-06   -0.25040E-05  5976   0.411E-02
   9 F= -.78732670E+02 E0= -.78729519E+02  d E =-.945358E-02
       N       E                     dE             d eps       ncg     rms          rms(c)
DAV:   1    -0.756820080977E+02    0.63175E-02   -0.31124E+00  6208   0.305E+00    0.187E-01
DAV:   2    -0.756885027184E+02   -0.64946E-02   -0.71047E-02  7624   0.774E-01    0.112E-01
DAV:   3    -0.756884132027E+02    0.89516E-04   -0.18834E-03  7808   0.282E-01    0.674E-02
DAV:   4    -0.756884647187E+02   -0.51516E-04   -0.88668E-04  7840   0.376E-01    0.489E-02
DAV:   5    -0.756883534457E+02    0.11127E-03   -0.66272E-04  7984   0.287E-01    0.197E-02
DAV:   6    -0.756883561725E+02   -0.27267E-05   -0.90943E-05  7584   0.101E-01
  10 F= -.78732700E+02 E0= -.78729543E+02  d E =-.947073E-02
       N       E                     dE             d eps       ncg     rms          rms(c)
DAV:   1    -0.756752049318E+02    0.13149E-01   -0.62075E+00  6368   0.430E+00    0.270E-01
DAV:   2    -0.756886344207E+02   -0.13429E-01   -0.14714E-01  7864   0.112E+00    0.163E-01
DAV:   3    -0.756884319514E+02    0.20247E-03   -0.37964E-03  7592   0.402E-01    0.100E-01
DAV:   4    -0.756885295882E+02   -0.97637E-04   -0.18978E-03  8008   0.542E-01    0.710E-02
DAV:   5    -0.756883031452E+02    0.22644E-03   -0.13869E-03  8000   0.418E-01    0.298E-02
DAV:   6    -0.756883049665E+02   -0.18214E-05   -0.20336E-04  7872   0.151E-01    0.223E-02
DAV:   7    -0.756883078092E+02   -0.28427E-05   -0.95652E-05  8848   0.533E-02
  11 F= -.78732652E+02 E0= -.78729506E+02  d E =-.943754E-02
       N       E                     dE             d eps       ncg     rms          rms(c)
DAV:   1    -0.756717265156E+02    0.16578E-01   -0.31301E+00  6472   0.309E+00    0.296E-01
DAV:   2    -0.756798064196E+02   -0.80799E-02   -0.93709E-02  8488   0.118E+00    0.185E-01
DAV:   3    -0.756803241233E+02   -0.51770E-03   -0.13752E-02  8184   0.134E+00    0.170E-01
DAV:   4    -0.756793425377E+02    0.98159E-03   -0.34112E-03  8072   0.661E-01    0.882E-02
DAV:   5    -0.756792854789E+02    0.57059E-04   -0.10585E-03  7832   0.169E-01    0.330E-02
DAV:   6    -0.756793215874E+02   -0.36108E-04   -0.44828E-04  8056   0.145E-01    0.222E-02
DAV:   7    -0.756793162431E+02    0.53443E-05   -0.48348E-05  7192   0.728E-02
  12 F= -.78723003E+02 E0= -.78720132E+02  d E =-.861190E-02
       N       E                     dE             d eps       ncg     rms          rms(c)
DAV:   1    -0.756655901746E+02    0.13731E-01   -0.62397E+00  6376   0.435E+00    0.605E-01
DAV:   2    -0.756834923316E+02   -0.17902E-01   -0.23663E-01  9152   0.196E+00    0.344E-01
DAV:   3    -0.756862475578E+02   -0.27552E-02   -0.61208E-02  8264   0.243E+00    0.340E-01
DAV:   4    -0.756820907905E+02    0.41568E-02   -0.14063E-02  8616   0.149E+00    0.204E-01
DAV:   5    -0.756819532654E+02    0.13753E-03   -0.24296E-03  8032   0.263E-01    0.117E-01
DAV:   6    -0.756819962835E+02   -0.43018E-04   -0.11550E-03  8080   0.318E-01    0.506E-02
DAV:   7    -0.756819607508E+02    0.35533E-04   -0.47918E-04  8208   0.209E-01    0.220E-02
DAV:   8    -0.756819646321E+02   -0.38813E-05   -0.65907E-05  7352   0.446E-02
  13 F= -.78726966E+02 E0= -.78723507E+02  d E =-.103782E-01
