       N       E                     dE             d eps       ncg     rms          rms(c)
DAV:   1     0.233504086761E+04    0.23350E+04   -0.93915E+04  5784   0.161E+03
DAV:   2     0.306774058251E+03   -0.20283E+04   -0.19733E+04  5728   0.463E+02
DAV:   3    -0.561800904165E+02   -0.36295E+03   -0.35157E+03  6216   0.205E+02
DAV:   4    -0.942219134171E+02   -0.38042E+02   -0.37023E+02  7000   0.578E+01
DAV:   5    -0.971412585218E+02   -0.29193E+01   -0.28912E+01  8624   0.123E+01    0.425E+01
RMM:   6    -0.943942959533E+02    0.27470E+01   -0.21598E+01  6243   0.792E+00    0.314E+01
RMM:   7    -0.102027132309E+03   -0.76328E+01   -0.15965E+01  6741   0.688E+00    0.255E+01
RMM:   8    -0.915901588840E+02    0.10437E+02   -0.66826E+00  6715   0.550E+00    0.140E+01
RMM:   9    -0.875732984234E+02    0.40169E+01   -0.54314E+00  7038   0.418E+00    0.637E+00
RMM:  10    -0.871344147000E+02    0.43888E+00   -0.12021E+00  8272   0.216E+00    0.264E+00
RMM:  11    -0.871582749937E+02   -0.23860E-01   -0.65493E-01  8736   0.144E+00    0.191E+00
RMM:  12    -0.871815029131E+02   -0.23228E-01   -0.26340E-01  8416   0.996E-01    0.204E+00
RMM:  13    -0.871527441461E+02    0.28759E-01   -0.18415E-01  9509   0.650E-01    0.648E-01
RMM:  14    -0.871631304647E+02   -0.10386E-01   -0.95826E-02  9815   0.421E-01    0.467E-01
RMM:  15    -0.871664722484E+02   -0.33418E-02   -0.47549E-02  9675   0.312E-01    0.209E-01
RMM:  16    -0.871690478755E+02   -0.25756E-02   -0.31058E-02  9882   0.224E-01    0.152E-01
RMM:  17    -0.871706924017E+02   -0.16445E-02   -0.17386E-02  9815   0.174E-01    0.605E-02
RMM:  18    -0.871717945293E+02   -0.11021E-02   -0.12287E-02  9772   0.139E-01    0.456E-02
RMM:  19    -0.871727467454E+02   -0.95222E-03   -0.76987E-03  9688   0.106E-01    0.392E-02
RMM:  20    -0.871734295121E+02   -0.68277E-03   -0.52488E-03  9413   0.855E-02    0.239E-02
RMM:  21    -0.871739606715E+02   -0.53116E-03   -0.36263E-03  8931   0.681E-02    0.190E-02
RMM:  22    -0.871743863650E+02   -0.42569E-03   -0.24787E-03  8460   0.552E-02    0.228E-02
RMM:  23    -0.871747025292E+02   -0.31616E-03   -0.16526E-03  7819   0.451E-02    0.183E-02
RMM:  24    -0.871749221265E+02   -0.21960E-03   -0.12011E-03  6790   0.367E-02    0.144E-02
RMM:  25    -0.871750229708E+02   -0.10084E-03   -0.81751E-04  5724   0.298E-02    0.149E-02
RMM:  26    -0.871750885287E+02   -0.65558E-04   -0.60641E-04  5060   0.244E-02    0.161E-02
RMM:  27    -0.871751277344E+02   -0.39206E-04   -0.45031E-04  4742   0.199E-02    0.262E-02
RMM:  28    -0.871751628102E+02   -0.35076E-04   -0.31255E-04  4620   0.166E-02    0.169E-02
RMM:  29    -0.871751859332E+02   -0.23123E-04   -0.22988E-04  4199   0.134E-02    0.143E-02
RMM:  30    -0.871752019737E+02   -0.16040E-04   -0.16781E-04  3985   0.113E-02    0.149E-02
RMM:  31    -0.871752146201E+02   -0.12646E-04   -0.13228E-04  3457   0.961E-03    0.185E-02
RMM:  32    -0.871752234098E+02   -0.87897E-05   -0.97969E-05  3445   0.871E-03
   1 F= -.90301421E+02 E0= -.90300013E+02  d E =-.903014E+02
       N       E                     dE             d eps       ncg     rms          rms(c)
DAV:   1    -0.940448737922E+01    0.77771E+02   -0.69240E+03  6160   0.227E+02    0.359E+01
RMM:   2    -0.617252542493E+02   -0.52321E+02   -0.62428E+02  7076   0.525E+01    0.163E+01
RMM:   3    -0.839522321867E+02   -0.22227E+02   -0.19394E+02  6780   0.304E+01    0.218E+01
RMM:   4    -0.777440578205E+02    0.62082E+01   -0.63017E+01  7160   0.159E+01    0.172E+01
RMM:   5    -0.779012606123E+02   -0.15720E+00   -0.22938E+01  8782   0.803E+00    0.158E+01
RMM:   6    -0.747627581383E+02    0.31385E+01   -0.13074E+01  7621   0.596E+00    0.983E+00
RMM:   7    -0.770797750217E+02   -0.23170E+01   -0.14116E+01  7108   0.559E+00    0.144E+01
RMM:   8    -0.760360162618E+02    0.10438E+01   -0.50076E+00  9457   0.289E+00    0.124E+01
RMM:   9    -0.755189051943E+02    0.51711E+00   -0.30438E+00  9452   0.194E+00    0.883E+00
RMM:  10    -0.751593955805E+02    0.35951E+00   -0.27587E+00  8893   0.189E+00    0.430E+00
RMM:  11    -0.760207890695E+02   -0.86139E+00   -0.30161E+00  7270   0.239E+00    0.879E+00
RMM:  12    -0.754590256055E+02    0.56176E+00   -0.25979E+00  7515   0.197E+00    0.168E+00
RMM:  13    -0.758449965422E+02   -0.38597E+00   -0.32171E+00  9401   0.145E+00    0.255E+00
RMM:  14    -0.761541479765E+02   -0.30915E+00   -0.28215E+00  9340   0.120E+00    0.353E+00
RMM:  15    -0.763676846823E+02   -0.21354E+00   -0.23138E+00  8351   0.109E+00    0.393E+00
RMM:  16    -0.762810633629E+02    0.86621E-01   -0.14735E+00  8934   0.911E-01    0.303E+00
RMM:  17    -0.763713919520E+02   -0.90329E-01   -0.12432E+00  9222   0.673E-01    0.320E+00
RMM:  18    -0.764734025313E+02   -0.10201E+00   -0.10207E+00  9036   0.575E-01    0.361E+00
RMM:  19    -0.764837077996E+02   -0.10305E-01   -0.81004E-01  8599   0.510E-01    0.356E+00
RMM:  20    -0.764357930459E+02    0.47915E-01   -0.60701E-01  8610   0.451E-01    0.306E+00
RMM:  21    -0.764765763149E+02   -0.40783E-01   -0.52313E-01  8319   0.374E-01    0.327E+00
RMM:  22    -0.765212641279E+02   -0.44688E-01   -0.47791E-01  7687   0.320E-01    0.356E+00
RMM:  23    -0.764952089216E+02    0.26055E-01   -0.35773E-01  7680   0.298E-01    0.336E+00
RMM:  24    -0.765198965012E+02   -0.24688E-01   -0.31814E-01  7062   0.255E-01    0.359E+00
RMM:  25    -0.765401248999E+02   -0.20228E-01   -0.27303E-01  6543   0.221E-01    0.378E+00
RMM:  26    -0.765608462432E+02   -0.20721E-01   -0.24737E-01  6188   0.197E-01    0.399E+00
RMM:  27    -0.765642748701E+02   -0.34286E-02   -0.21234E-01  6014   0.181E-01    0.409E+00
RMM:  28    -0.765464957222E+02    0.17779E-01   -0.16893E-01  7188   0.190E-01    0.390E+00
RMM:  29    -0.765215643447E+02    0.24931E-01   -0.12953E-01  8135   0.194E-01    0.355E+00
RMM:  30    -0.765243477867E+02   -0.27834E-02   -0.10652E-01  5811   0.138E-01    0.354E+00
RMM:  31    -0.765281581540E+02   -0.38104E-02   -0.83614E-02  5667   0.120E-01    0.357E+00
RMM:  32    -0.764802586086E+02    0.47900E-01   -0.61492E-02  7267   0.164E-01    0.287E+00
RMM:  33    -0.764796157434E+02    0.64287E-03   -0.54836E-02  6394   0.124E-01    0.272E+00
RMM:  34    -0.764841500605E+02   -0.45343E-02   -0.37418E-02  5380   0.890E-02    0.271E+00
RMM:  35    -0.764867702131E+02   -0.26202E-02   -0.35864E-02  5323   0.784E-02    0.273E+00
RMM:  36    -0.764865935532E+02    0.17666E-03   -0.30633E-02  5200   0.680E-02    0.270E+00
RMM:  37    -0.764808936079E+02    0.56999E-02   -0.27188E-02  6070   0.923E-02    0.246E+00
RMM:  38    -0.764799349988E+02    0.95861E-03   -0.25082E-02  6440   0.102E-01    0.221E+00
RMM:  39    -0.764774502758E+02    0.24847E-02   -0.22589E-02  5661   0.802E-02    0.201E+00
RMM:  40    -0.764776882372E+02   -0.23796E-03   -0.19846E-02  5455   0.611E-02    0.193E+00
RMM:  41    -0.764815803709E+02   -0.38921E-02   -0.17144E-02  5354   0.529E-02    0.201E+00
RMM:  42    -0.764853174023E+02   -0.37370E-02   -0.16672E-02  5334   0.477E-02    0.210E+00
RMM:  43    -0.764850888332E+02    0.22857E-03   -0.15488E-02  4912   0.394E-02    0.209E+00
RMM:  44    -0.764860364350E+02   -0.94760E-03   -0.14566E-02  4774   0.354E-02    0.211E+00
RMM:  45    -0.764882870475E+02   -0.22506E-02   -0.14333E-02  4698   0.307E-02    0.216E+00
RMM:  46    -0.764870117589E+02    0.12753E-02   -0.12786E-02  4655   0.288E-02    0.212E+00
RMM:  47    -0.764901301816E+02   -0.31184E-02   -0.11874E-02  4660   0.276E-02    0.220E+00
RMM:  48    -0.764905110175E+02   -0.38084E-03   -0.10618E-02  3558   0.217E-02    0.222E+00
RMM:  49    -0.764911151808E+02   -0.60416E-03   -0.96068E-03  2881   0.191E-02    0.224E+00
RMM:  50    -0.764917127404E+02   -0.59756E-03   -0.86466E-03  2813   0.176E-02    0.226E+00
RMM:  51    -0.764921908200E+02   -0.47808E-03   -0.77483E-03  2712   0.164E-02    0.227E+00
RMM:  52    -0.764917422308E+02    0.44859E-03   -0.67016E-03  3072   0.163E-02    0.226E+00
RMM:  53    -0.764937721705E+02   -0.20299E-02   -0.62730E-03  3374   0.159E-02    0.232E+00
RMM:  54    -0.764941250117E+02   -0.35284E-03   -0.55063E-03  2680   0.139E-02    0.234E+00
RMM:  55    -0.764943478484E+02   -0.22284E-03   -0.49237E-03  2514   0.127E-02    0.235E+00
RMM:  56    -0.764940678719E+02    0.27998E-03   -0.43397E-03  3636   0.135E-02    0.234E+00
RMM:  57    -0.764938078341E+02    0.26004E-03   -0.39564E-03  4219   0.138E-02    0.233E+00
RMM:  58    -0.764929241898E+02    0.88364E-03   -0.35129E-03  4153   0.133E-02    0.231E+00
RMM:  59    -0.764927407432E+02    0.18345E-03   -0.32124E-03  3494   0.120E-02    0.230E+00
RMM:  60    -0.764925306992E+02    0.21004E-03   -0.28976E-03  3507   0.116E-02    0.228E+00
RMM:  61    -0.764925807085E+02   -0.50009E-04   -0.26680E-03  3224   0.107E-02    0.228E+00
RMM:  62    -0.764944424722E+02   -0.18618E-02   -0.26045E-03  5014   0.170E-02    0.233E+00
RMM:  63    -0.764937335991E+02    0.70887E-03   -0.23017E-03  4298   0.134E-02    0.230E+00
RMM:  64    -0.764930417110E+02    0.69189E-03   -0.21076E-03  3414   0.111E-02    0.227E+00
RMM:  65    -0.764910073283E+02    0.20344E-02   -0.18563E-03  4209   0.141E-02    0.219E+00
RMM:  66    -0.764881428325E+02    0.28645E-02   -0.18045E-03  4632   0.187E-02    0.206E+00
RMM:  67    -0.764693279966E+02    0.18815E-01   -0.26662E-02  8122   0.184E-01    0.258E-01
RMM:  68    -0.764773493810E+02   -0.80214E-02   -0.10106E-02  5585   0.943E-02    0.305E-01
RMM:  69    -0.764786336610E+02   -0.12843E-02   -0.82741E-03  5395   0.480E-02    0.267E-01
RMM:  70    -0.764793841580E+02   -0.75050E-03   -0.47241E-03  5581   0.434E-02    0.221E-01
RMM:  71    -0.764802241866E+02   -0.84003E-03   -0.49540E-03  5414   0.442E-02    0.191E-01
RMM:  72    -0.764826995863E+02   -0.24754E-02   -0.76842E-03  5639   0.638E-02    0.600E-01
RMM:  73    -0.764820530621E+02    0.64652E-03   -0.49614E-03  5284   0.434E-02    0.628E-01
RMM:  74    -0.764822868078E+02   -0.23375E-03   -0.35926E-03  5139   0.320E-02    0.703E-01
RMM:  75    -0.764825580264E+02   -0.27122E-03   -0.31359E-03  4964   0.262E-02    0.769E-01
RMM:  76    -0.764827862472E+02   -0.22822E-03   -0.24184E-03  4752   0.230E-02    0.831E-01
RMM:  77    -0.764830939820E+02   -0.30773E-03   -0.22052E-03  4921   0.234E-02    0.907E-01
RMM:  78    -0.764830363997E+02    0.57582E-04   -0.18955E-03  4297   0.179E-02    0.930E-01
RMM:  79    -0.764829814249E+02    0.54975E-04   -0.14117E-03  3722   0.139E-02    0.938E-01
RMM:  80    -0.764832009125E+02   -0.21949E-03   -0.14287E-03  3606   0.126E-02    0.961E-01
RMM:  81    -0.764832799683E+02   -0.79056E-04   -0.10873E-03  3744   0.129E-02    0.977E-01
RMM:  82    -0.764837240450E+02   -0.44408E-03   -0.11758E-03  4459   0.163E-02    0.102E+00
RMM:  83    -0.764837321357E+02   -0.80907E-05   -0.93771E-04  3695   0.117E-02    0.103E+00
RMM:  84    -0.764837869737E+02   -0.54838E-04   -0.89581E-04  3391   0.101E-02    0.105E+00
RMM:  85    -0.764837367536E+02    0.50220E-04   -0.71010E-04  3632   0.102E-02    0.105E+00
RMM:  86    -0.764838679455E+02   -0.13119E-03   -0.70609E-04  3737   0.104E-02    0.106E+00
RMM:  87    -0.764841694025E+02   -0.30146E-03   -0.63332E-04  3839   0.107E-02    0.110E+00
RMM:  88    -0.764840238922E+02    0.14551E-03   -0.57647E-04  3885   0.111E-02    0.110E+00
RMM:  89    -0.764838437258E+02    0.18017E-03   -0.48151E-04  3588   0.997E-03    0.110E+00
RMM:  90    -0.764838968411E+02   -0.53115E-04   -0.45647E-04  2935   0.772E-03    0.110E+00
RMM:  91    -0.764838884422E+02    0.83990E-05   -0.40198E-04  2167   0.704E-03    0.110E+00
RMM:  92    -0.764815044940E+02    0.23839E-02   -0.11307E-03  6284   0.584E-02    0.758E-01
RMM:  93    -0.764826350581E+02   -0.11306E-02   -0.43646E-04  5538   0.340E-02    0.740E-01
RMM:  94    -0.764823062866E+02    0.32877E-03   -0.32102E-04  5269   0.187E-02    0.663E-01
RMM:  95    -0.764820254704E+02    0.28082E-03   -0.33009E-04  4850   0.181E-02    0.581E-01
RMM:  96    -0.764814209341E+02    0.60454E-03   -0.52492E-04  5289   0.280E-02    0.415E-01
RMM:  97    -0.764813017393E+02    0.11919E-03   -0.90712E-04  5318   0.314E-02    0.228E-01
RMM:  98    -0.764817965414E+02   -0.49480E-03   -0.63720E-04  5039   0.235E-02    0.192E-01
RMM:  99    -0.764820174376E+02   -0.22090E-03   -0.74319E-04  5331   0.282E-02    0.766E-02
RMM: 100    -0.764822313149E+02   -0.21388E-03   -0.63699E-04  4822   0.201E-02
   2 F= -.79698656E+02 E0= -.79685955E+02  d E =0.106028E+02
       N       E                     dE             d eps       ncg     rms          rms(c)
DAV:   1    -0.567267312363E+02    0.19755E+02   -0.33778E+03  6128   0.215E+02    0.365E+01
RMM:   2    -0.743486172694E+02   -0.17622E+02   -0.15333E+02  6328   0.547E+01    0.124E+02
RMM:   3    -0.797344205499E+02   -0.53858E+01   -0.52584E+01  6955   0.204E+01    0.183E+01
RMM:   4    -0.748828689245E+02    0.48516E+01   -0.13501E+01  6976   0.105E+01    0.147E+01
RMM:   5    -0.710975969725E+02    0.37853E+01   -0.25397E+00  7909   0.562E+00    0.112E+01
RMM:   6    -0.700268826415E+02    0.10707E+01   -0.26421E+00  8664   0.349E+00    0.818E+00
RMM:   7    -0.695188285733E+02    0.50805E+00   -0.57619E-01  8799   0.222E+00    0.470E+00
RMM:   8    -0.694905620729E+02    0.28267E-01   -0.38168E-01  9002   0.158E+00    0.343E+00
RMM:   9    -0.697496475978E+02   -0.25909E+00   -0.37953E-01  8317   0.156E+00    0.584E+00
RMM:  10    -0.694258699720E+02    0.32378E+00   -0.11485E-01  9055   0.115E+00    0.148E+00
RMM:  11    -0.694402618013E+02   -0.14392E-01   -0.69025E-02  9430   0.860E-01    0.107E+00
RMM:  12    -0.694417446775E+02   -0.14829E-02   -0.33614E-02  9523   0.677E-01    0.111E+00
RMM:  13    -0.694438996367E+02   -0.21550E-02   -0.21983E-02  9325   0.583E-01    0.123E+00
RMM:  14    -0.694452964820E+02   -0.13968E-02   -0.14469E-02  9040   0.516E-01    0.145E+00
RMM:  15    -0.694459482937E+02   -0.65181E-03   -0.87756E-03  8671   0.462E-01    0.165E+00
RMM:  16    -0.694468568655E+02   -0.90857E-03   -0.86936E-03  8102   0.420E-01    0.170E+00
RMM:  17    -0.694471298586E+02   -0.27299E-03   -0.28448E-03  7737   0.385E-01    0.156E+00
RMM:  18    -0.694474538645E+02   -0.32401E-03   -0.41911E-03  7483   0.358E-01    0.178E+00
RMM:  19    -0.694474428738E+02    0.10991E-04   -0.15013E-04  7205   0.332E-01    0.181E+00
RMM:  20    -0.694475391964E+02   -0.96323E-04   -0.14089E-03  6976   0.311E-01    0.180E+00
RMM:  21    -0.694474192708E+02    0.11993E-03    0.80490E-04  6760   0.293E-01    0.174E+00
RMM:  22    -0.694474046445E+02    0.14626E-04   -0.25977E-04  6812   0.279E-01    0.141E+00
RMM:  23    -0.694473079160E+02    0.96728E-04    0.47255E-04  6834   0.268E-01    0.823E-01
RMM:  24    -0.694471282208E+02    0.17970E-03    0.11304E-03  6599   0.253E-01    0.535E-01
RMM:  25    -0.694467428506E+02    0.38537E-03    0.25327E-03  6585   0.243E-01    0.330E-01
RMM:  26    -0.694463519213E+02    0.39093E-03    0.25556E-03  6622   0.234E-01    0.228E-01
RMM:  27    -0.694459437429E+02    0.40818E-03    0.31854E-03  6551   0.223E-01    0.194E-01
RMM:  28    -0.694456044052E+02    0.33934E-03    0.26845E-03  6442   0.215E-01    0.165E-01
RMM:  29    -0.694450741045E+02    0.53030E-03    0.46080E-03  6851   0.218E-01    0.539E-02
RMM:  30    -0.694448190285E+02    0.25508E-03    0.22758E-03  6608   0.201E-01    0.313E-02
RMM:  31    -0.694445089346E+02    0.31009E-03    0.28706E-03  6041   0.191E-01    0.209E-02
RMM:  32    -0.694441553336E+02    0.35360E-03    0.32887E-03  5539   0.185E-01    0.667E-03
RMM:  33    -0.694438675455E+02    0.28779E-03    0.25752E-03  4573   0.176E-01    0.917E-03
RMM:  34    -0.694435369199E+02    0.33063E-03    0.29971E-03  4260   0.169E-01    0.117E-02
RMM:  35    -0.694432153506E+02    0.32157E-03    0.29365E-03  4460   0.164E-01    0.113E-02
RMM:  36    -0.694429376076E+02    0.27774E-03    0.24902E-03  4368   0.159E-01    0.167E-02
RMM:  37    -0.694425948091E+02    0.34280E-03    0.31346E-03  4162   0.154E-01    0.158E-02
RMM:  38    -0.694423413686E+02    0.25344E-03    0.22668E-03  4106   0.150E-01    0.211E-02
RMM:  39    -0.694420134393E+02    0.32793E-03    0.30013E-03  4044   0.146E-01    0.222E-02
RMM:  40    -0.694417575976E+02    0.25584E-03    0.22968E-03  3984   0.142E-01    0.248E-02
RMM:  41    -0.694414436812E+02    0.31392E-03    0.28665E-03  3988   0.138E-01    0.254E-02
RMM:  42    -0.694411486770E+02    0.29500E-03    0.26500E-03  4275   0.135E-01    0.210E-02
RMM:  43    -0.694408128826E+02    0.33579E-03    0.30632E-03  4794   0.133E-01    0.118E-02
RMM:  44    -0.694405601289E+02    0.25275E-03    0.22784E-03  3951   0.128E-01    0.138E-02
RMM:  45    -0.694402632581E+02    0.29687E-03    0.27232E-03  3955   0.125E-01    0.140E-02
RMM:  46    -0.694400112861E+02    0.25197E-03    0.22813E-03  3861   0.122E-01    0.152E-02
RMM:  47    -0.694397386699E+02    0.27262E-03    0.24926E-03  3717   0.119E-01    0.173E-02
RMM:  48    -0.694394983422E+02    0.24033E-03    0.21721E-03  3592   0.116E-01    0.192E-02
RMM:  49    -0.694392351194E+02    0.26322E-03    0.24062E-03  3654   0.114E-01    0.212E-02
RMM:  50    -0.694390005938E+02    0.23453E-03    0.21202E-03  3576   0.111E-01    0.228E-02
RMM:  51    -0.694387486049E+02    0.25199E-03    0.23030E-03  3591   0.109E-01    0.246E-02
RMM:  52    -0.694385341067E+02    0.21450E-03    0.19513E-03  3704   0.107E-01    0.295E-02
RMM:  53    -0.694382922139E+02    0.24189E-03    0.22148E-03  3596   0.105E-01    0.320E-02
RMM:  54    -0.694380681768E+02    0.22404E-03    0.20309E-03  3457   0.102E-01    0.330E-02
RMM:  55    -0.694378451295E+02    0.22305E-03    0.20504E-03  3650   0.101E-01    0.361E-02
RMM:  56    -0.694376234020E+02    0.22173E-03    0.20090E-03  3560   0.990E-02    0.371E-02
RMM:  57    -0.694373896301E+02    0.23377E-03    0.21099E-03  3460   0.971E-02    0.366E-02
RMM:  58    -0.694371793610E+02    0.21027E-03    0.18995E-03  3504   0.957E-02    0.382E-02
RMM:  59    -0.694369593035E+02    0.22006E-03    0.19971E-03  3474   0.943E-02    0.398E-02
RMM:  60    -0.694367538042E+02    0.20550E-03    0.18536E-03  3397   0.921E-02    0.410E-02
RMM:  61    -0.694365444748E+02    0.20933E-03    0.18974E-03  3387   0.910E-02    0.426E-02
RMM:  62    -0.694363514515E+02    0.19302E-03    0.17607E-03  3537   0.896E-02    0.460E-02
RMM:  63    -0.694361447872E+02    0.20666E-03    0.18659E-03  3347   0.877E-02    0.470E-02
RMM:  64    -0.694359540246E+02    0.19076E-03    0.17172E-03  3354   0.866E-02    0.485E-02
RMM:  65    -0.694357563825E+02    0.19764E-03    0.17880E-03  3371   0.850E-02    0.500E-02
RMM:  66    -0.694355700639E+02    0.18632E-03    0.16752E-03  3290   0.837E-02    0.514E-02
RMM:  67    -0.694353797285E+02    0.19034E-03    0.17138E-03  3284   0.824E-02    0.527E-02
RMM:  68    -0.694351979740E+02    0.18175E-03    0.16285E-03  3251   0.813E-02    0.538E-02
RMM:  69    -0.694350142945E+02    0.18368E-03    0.16519E-03  3229   0.800E-02    0.552E-02
RMM:  70    -0.694348398515E+02    0.17444E-03    0.15643E-03  3256   0.789E-02    0.566E-02
RMM:  71    -0.694346620824E+02    0.17777E-03    0.15959E-03  3219   0.778E-02    0.580E-02
RMM:  72    -0.694344893974E+02    0.17269E-03    0.15322E-03  3234   0.767E-02    0.586E-02
RMM:  73    -0.694343166802E+02    0.17272E-03    0.15415E-03  3216   0.759E-02    0.597E-02
RMM:  74    -0.694341881847E+02    0.12850E-03    0.11034E-03  3178   0.750E-02    0.606E-02
RMM:  75    -0.694339956969E+02    0.19249E-03    0.17494E-03  3157   0.741E-02    0.620E-02
RMM:  76    -0.694338194733E+02    0.17622E-03    0.15825E-03  3162   0.730E-02    0.634E-02
RMM:  77    -0.694336714755E+02    0.14800E-03    0.13745E-03  3426   0.725E-02    0.675E-02
RMM:  78    -0.694335073942E+02    0.16408E-03    0.14636E-03  3224   0.715E-02    0.686E-02
RMM:  79    -0.694333489220E+02    0.15847E-03    0.13983E-03  3241   0.705E-02    0.692E-02
RMM:  80    -0.694331948820E+02    0.15404E-03    0.13671E-03  3085   0.696E-02    0.703E-02
RMM:  81    -0.694330428569E+02    0.15203E-03    0.13496E-03  3080   0.690E-02    0.715E-02
RMM:  82    -0.694328905001E+02    0.15236E-03    0.13300E-03  3206   0.683E-02    0.719E-02
RMM:  83    -0.694327507631E+02    0.13974E-03    0.12650E-03  3212   0.675E-02    0.743E-02
RMM:  84    -0.694326087397E+02    0.14202E-03    0.12624E-03  3065   0.665E-02    0.757E-02
RMM:  85    -0.694324674303E+02    0.14131E-03    0.12461E-03  3098   0.659E-02    0.768E-02
RMM:  86    -0.694323290568E+02    0.13837E-03    0.12159E-03  3056   0.655E-02    0.777E-02
RMM:  87    -0.694321963051E+02    0.13275E-03    0.11856E-03  3206   0.652E-02    0.794E-02
RMM:  88    -0.694320627500E+02    0.13356E-03    0.11728E-03  3042   0.641E-02    0.805E-02
RMM:  89    -0.694319301414E+02    0.13261E-03    0.11619E-03  3048   0.635E-02    0.815E-02
RMM:  90    -0.694317999765E+02    0.13016E-03    0.11395E-03  3014   0.629E-02    0.825E-02
RMM:  91    -0.694316716822E+02    0.12829E-03    0.11284E-03  3015   0.626E-02    0.838E-02
RMM:  92    -0.694315052985E+02    0.16638E-03    0.12834E-03  3485   0.631E-02    0.772E-02
RMM:  93    -0.694313741508E+02    0.13115E-03    0.11196E-03  3300   0.619E-02    0.770E-02
RMM:  94    -0.694312510173E+02    0.12313E-03    0.10965E-03  3187   0.614E-02    0.790E-02
RMM:  95    -0.694311228305E+02    0.12819E-03    0.11076E-03  3165   0.607E-02    0.796E-02
RMM:  96    -0.694310037418E+02    0.11909E-03    0.10428E-03  3068   0.604E-02    0.811E-02
RMM:  97    -0.694308847697E+02    0.11897E-03    0.10497E-03  3075   0.596E-02    0.829E-02
RMM:  98    -0.694307729577E+02    0.11181E-03    0.99273E-04  3138   0.594E-02    0.851E-02
RMM:  99    -0.694306610782E+02    0.11188E-03    0.99855E-04  3086   0.586E-02    0.874E-02
RMM: 100    -0.694305705577E+02    0.90520E-04    0.78141E-04  3045   0.579E-02
   3 F= -.72603863E+02 E0= -.72596451E+02  d E =0.176976E+02
       N       E                     dE             d eps       ncg     rms          rms(c)
DAV:   1    -0.845733715452E+02   -0.15143E+02   -0.37375E+02  6504   0.375E+01    0.775E+00
RMM:   2    -0.860146616933E+02   -0.14413E+01   -0.21901E+01  6274   0.138E+01    0.813E+00
RMM:   3    -0.866714954462E+02   -0.65683E+00   -0.77975E+00  6729   0.615E+00    0.732E+00
RMM:   4    -0.863910875263E+02    0.28041E+00   -0.20997E+00  7026   0.299E+00    0.535E+00
RMM:   5    -0.860408732803E+02    0.35021E+00   -0.40982E-01  7501   0.137E+00    0.228E+00
RMM:   6    -0.860425729582E+02   -0.16997E-02   -0.19827E-01  8109   0.776E-01    0.151E+00
RMM:   7    -0.860297379560E+02    0.12835E-01   -0.10539E-01  7429   0.577E-01    0.659E-01
RMM:   8    -0.860313147961E+02   -0.15768E-02   -0.54910E-02  8309   0.391E-01    0.627E-01
RMM:   9    -0.860314033465E+02   -0.88550E-04   -0.31511E-02  8503   0.254E-01    0.239E-01
RMM:  10    -0.860334561398E+02   -0.20528E-02   -0.20606E-02  7898   0.175E-01    0.116E-01
RMM:  11    -0.860350589138E+02   -0.16028E-02   -0.15707E-02  7162   0.132E-01    0.450E-02
RMM:  12    -0.860361604675E+02   -0.11016E-02   -0.10779E-02  6535   0.102E-01    0.301E-02
RMM:  13    -0.860371020051E+02   -0.94154E-03   -0.87343E-03  6321   0.836E-02    0.124E-02
RMM:  14    -0.860378428001E+02   -0.74079E-03   -0.65013E-03  6091   0.706E-02    0.650E-03
RMM:  15    -0.860384356627E+02   -0.59286E-03   -0.54645E-03  5807   0.595E-02    0.620E-03
RMM:  16    -0.860389443366E+02   -0.50867E-03   -0.41920E-03  5577   0.521E-02    0.418E-03
RMM:  17    -0.860393377866E+02   -0.39345E-03   -0.36121E-03  5158   0.455E-02    0.372E-03
RMM:  18    -0.860396355107E+02   -0.29772E-03   -0.27873E-03  4619   0.403E-02    0.248E-03
RMM:  19    -0.860398732673E+02   -0.23776E-03   -0.23985E-03  4145   0.365E-02    0.311E-03
RMM:  20    -0.860400546524E+02   -0.18139E-03   -0.19201E-03  3680   0.335E-02    0.563E-03
RMM:  21    -0.860402238883E+02   -0.16924E-03   -0.16551E-03  3559   0.311E-02    0.557E-03
RMM:  22    -0.860403554853E+02   -0.13160E-03   -0.13357E-03  3412   0.291E-02    0.602E-03
RMM:  23    -0.860404664148E+02   -0.11093E-03   -0.11548E-03  3140   0.274E-02    0.743E-03
RMM:  24    -0.860405609125E+02   -0.94498E-04   -0.97618E-04  2984   0.261E-02    0.857E-03
RMM:  25    -0.860406404638E+02   -0.79551E-04   -0.83162E-04  2837   0.251E-02    0.965E-03
RMM:  26    -0.860407029272E+02   -0.62463E-04   -0.65893E-04  2678   0.244E-02    0.110E-02
RMM:  27    -0.860407612035E+02   -0.58276E-04   -0.61461E-04  2594   0.237E-02    0.122E-02
RMM:  28    -0.860408075185E+02   -0.46315E-04   -0.49281E-04  2486   0.230E-02    0.135E-02
RMM:  29    -0.860408522155E+02   -0.44697E-04   -0.47426E-04  2425   0.224E-02    0.147E-02
RMM:  30    -0.860408875323E+02   -0.35317E-04   -0.37921E-04  2474   0.221E-02    0.159E-02
RMM:  31    -0.860409151934E+02   -0.27661E-04   -0.30143E-04  2375   0.214E-02    0.170E-02
RMM:  32    -0.860409397208E+02   -0.24527E-04   -0.26790E-04  2388   0.209E-02    0.182E-02
RMM:  33    -0.860409633160E+02   -0.23595E-04   -0.25821E-04  2341   0.204E-02    0.193E-02
RMM:  34    -0.860409845452E+02   -0.21229E-04   -0.23252E-04  2287   0.201E-02    0.204E-02
RMM:  35    -0.860410047704E+02   -0.20225E-04   -0.22254E-04  2324   0.199E-02    0.215E-02
RMM:  36    -0.860410196934E+02   -0.14923E-04   -0.16819E-04  2286   0.194E-02    0.225E-02
RMM:  37    -0.860410355693E+02   -0.15876E-04   -0.17827E-04  2298   0.193E-02    0.235E-02
RMM:  38    -0.860410491123E+02   -0.13543E-04   -0.15185E-04  2258   0.188E-02    0.246E-02
RMM:  39    -0.860410606838E+02   -0.11572E-04   -0.13143E-04  2267   0.186E-02    0.256E-02
RMM:  40    -0.860410719407E+02   -0.11257E-04   -0.12805E-04  2290   0.184E-02    0.266E-02
RMM:  41    -0.860410859062E+02   -0.13965E-04   -0.15543E-04  2274   0.182E-02    0.276E-02
RMM:  42    -0.860410953568E+02   -0.94506E-05   -0.10887E-04  2219   0.178E-02    0.287E-02
RMM:  43    -0.860411054742E+02   -0.10117E-04   -0.11632E-04  2220   0.176E-02    0.297E-02
RMM:  44    -0.860411151542E+02   -0.96799E-05   -0.11131E-04  2167   0.172E-02    0.307E-02
RMM:  45    -0.860411258342E+02   -0.10680E-04   -0.12219E-04  2192   0.173E-02    0.317E-02
RMM:  46    -0.860411361325E+02   -0.10298E-04   -0.11926E-04  2200   0.172E-02    0.328E-02
RMM:  47    -0.860411458273E+02   -0.96948E-05   -0.11640E-04  2177   0.169E-02    0.339E-02
RMM:  48    -0.860411564991E+02   -0.10672E-04   -0.12318E-04  2224   0.168E-02    0.349E-02
RMM:  49    -0.860411670897E+02   -0.10591E-04   -0.12278E-04  2173   0.165E-02    0.360E-02
RMM:  50    -0.860411792028E+02   -0.12113E-04   -0.13835E-04  2141   0.165E-02    0.370E-02
RMM:  51    -0.860411900142E+02   -0.10811E-04   -0.12497E-04  2164   0.163E-02    0.381E-02
RMM:  52    -0.860412022186E+02   -0.12204E-04   -0.14284E-04  2133   0.162E-02    0.392E-02
RMM:  53    -0.860412134619E+02   -0.11243E-04   -0.12865E-04  2143   0.161E-02    0.401E-02
RMM:  54    -0.860412245515E+02   -0.11090E-04   -0.12772E-04  2144   0.161E-02    0.410E-02
RMM:  55    -0.860412362697E+02   -0.11718E-04   -0.13453E-04  2156   0.160E-02    0.419E-02
RMM:  56    -0.860412477540E+02   -0.11484E-04   -0.13240E-04  2166   0.159E-02    0.428E-02
RMM:  57    -0.860412594660E+02   -0.11712E-04   -0.13234E-04  2108   0.157E-02    0.437E-02
RMM:  58    -0.860412770600E+02   -0.17594E-04   -0.19441E-04  2115   0.156E-02    0.447E-02
RMM:  59    -0.860412842679E+02   -0.72078E-05   -0.88654E-05  2104   0.155E-02
   4 F= -.89189810E+02 E0= -.89185911E+02  d E =0.111161E+01
       N       E                     dE             d eps       ncg     rms          rms(c)
DAV:   1    -0.828924941649E+02    0.31488E+01   -0.98527E+02  5776   0.787E+01    0.104E+01
RMM:   2    -0.886578854372E+02   -0.57654E+01   -0.56057E+01  6096   0.202E+01    0.634E+00
RMM:   3    -0.902371871858E+02   -0.15793E+01   -0.92706E+00  6595   0.861E+00    0.829E+00
RMM:   4    -0.886328562655E+02    0.16043E+01   -0.30796E+00  7229   0.389E+00    0.363E+00
RMM:   5    -0.885406554055E+02    0.92201E-01   -0.45525E-01  7965   0.158E+00    0.296E+00
RMM:   6    -0.885286381861E+02    0.12017E-01   -0.10641E-01  8613   0.734E-01    0.236E+00
RMM:   7    -0.885148664501E+02    0.13772E-01   -0.11647E-01  7422   0.694E-01    0.112E+00
RMM:   8    -0.885134095255E+02    0.14569E-02   -0.76543E-02  8603   0.509E-01    0.957E-01
RMM:   9    -0.885138851305E+02   -0.47560E-03   -0.15679E-02  8104   0.314E-01    0.533E-01
RMM:  10    -0.885145050482E+02   -0.61992E-03   -0.17503E-02  7381   0.282E-01    0.188E-01
RMM:  11    -0.885149722498E+02   -0.46720E-03   -0.63806E-03  7220   0.175E-01    0.554E-02
RMM:  12    -0.885156469585E+02   -0.67471E-03   -0.57998E-03  6641   0.132E-01    0.508E-02
RMM:  13    -0.885161282928E+02   -0.48133E-03   -0.37799E-03  6311   0.109E-01    0.334E-02
RMM:  14    -0.885165620754E+02   -0.43378E-03   -0.27198E-03  6175   0.970E-02    0.238E-02
RMM:  15    -0.885168476678E+02   -0.28559E-03   -0.23062E-03  5970   0.851E-02    0.122E-02
RMM:  16    -0.885171651110E+02   -0.31744E-03   -0.20197E-03  5711   0.763E-02    0.958E-03
RMM:  17    -0.885174483095E+02   -0.28320E-03   -0.17035E-03  5523   0.699E-02    0.605E-03
RMM:  18    -0.885176685830E+02   -0.22027E-03   -0.16551E-03  5352   0.649E-02    0.581E-03
RMM:  19    -0.885178260388E+02   -0.15746E-03   -0.14561E-03  4544   0.605E-02    0.742E-03
RMM:  20    -0.885179843625E+02   -0.15832E-03   -0.15741E-03  4259   0.577E-02    0.120E-02
RMM:  21    -0.885181413054E+02   -0.15694E-03   -0.14596E-03  4661   0.561E-02    0.952E-03
RMM:  22    -0.885183044222E+02   -0.16312E-03   -0.15564E-03  4574   0.544E-02    0.558E-03
RMM:  23    -0.885184522734E+02   -0.14785E-03   -0.14937E-03  3575   0.523E-02    0.680E-03
RMM:  24    -0.885186098300E+02   -0.15756E-03   -0.16148E-03  3309   0.515E-02    0.968E-03
RMM:  25    -0.885187648651E+02   -0.15504E-03   -0.15845E-03  3217   0.507E-02    0.130E-02
RMM:  26    -0.885189323157E+02   -0.16745E-03   -0.17202E-03  3019   0.503E-02    0.169E-02
RMM:  27    -0.885191006876E+02   -0.16837E-03   -0.17264E-03  2978   0.502E-02    0.208E-02
RMM:  28    -0.885192824313E+02   -0.18174E-03   -0.18615E-03  2895   0.501E-02    0.252E-02
RMM:  29    -0.885194655158E+02   -0.18308E-03   -0.18725E-03  2833   0.496E-02    0.300E-02
RMM:  30    -0.885196635083E+02   -0.19799E-03   -0.20221E-03  2727   0.494E-02    0.346E-02
RMM:  31    -0.885198606948E+02   -0.19719E-03   -0.20120E-03  2772   0.497E-02    0.399E-02
RMM:  32    -0.885200684508E+02   -0.20776E-03   -0.21202E-03  2664   0.493E-02    0.447E-02
RMM:  33    -0.885202723168E+02   -0.20387E-03   -0.20877E-03  2702   0.495E-02    0.487E-02
RMM:  34    -0.885204863089E+02   -0.21399E-03   -0.21891E-03  2718   0.495E-02    0.526E-02
RMM:  35    -0.885206979226E+02   -0.21161E-03   -0.21523E-03  2631   0.492E-02    0.567E-02
RMM:  36    -0.885209173024E+02   -0.21938E-03   -0.22290E-03  2557   0.492E-02    0.601E-02
RMM:  37    -0.885211354787E+02   -0.21818E-03   -0.22049E-03  2552   0.493E-02    0.634E-02
RMM:  38    -0.885213638326E+02   -0.22835E-03   -0.23017E-03  2510   0.493E-02    0.667E-02
RMM:  39    -0.885215953487E+02   -0.23152E-03   -0.23290E-03  2464   0.492E-02    0.703E-02
RMM:  40    -0.885218310319E+02   -0.23568E-03   -0.23732E-03  2510   0.493E-02    0.737E-02
RMM:  41    -0.885220537234E+02   -0.22269E-03   -0.22405E-03  2468   0.492E-02    0.772E-02
RMM:  42    -0.885222808325E+02   -0.22711E-03   -0.22834E-03  2504   0.490E-02    0.806E-02
RMM:  43    -0.885225070354E+02   -0.22620E-03   -0.22670E-03  2472   0.488E-02    0.843E-02
RMM:  44    -0.885227419658E+02   -0.23493E-03   -0.23604E-03  2432   0.486E-02    0.878E-02
RMM:  45    -0.885229821843E+02   -0.24022E-03   -0.24180E-03  2443   0.482E-02    0.914E-02
RMM:  46    -0.885232056200E+02   -0.22344E-03   -0.22535E-03  2453   0.483E-02    0.950E-02
RMM:  47    -0.885234368217E+02   -0.23120E-03   -0.23063E-03  2460   0.481E-02    0.992E-02
RMM:  48    -0.885236798288E+02   -0.24301E-03   -0.24591E-03  2426   0.480E-02    0.103E-01
RMM:  49    -0.885238995222E+02   -0.21969E-03   -0.22302E-03  2478   0.480E-02    0.106E-01
RMM:  50    -0.885241097031E+02   -0.21018E-03   -0.21366E-03  2450   0.478E-02    0.110E-01
RMM:  51    -0.885242867657E+02   -0.17706E-03   -0.18069E-03  2391   0.474E-02    0.114E-01
RMM:  52    -0.885245218033E+02   -0.23504E-03   -0.23304E-03  2560   0.476E-02    0.118E-01
RMM:  53    -0.885248063972E+02   -0.28459E-03   -0.29479E-03  2361   0.473E-02    0.121E-01
RMM:  54    -0.885250368305E+02   -0.23043E-03   -0.23834E-03  2454   0.472E-02    0.125E-01
RMM:  55    -0.885252763081E+02   -0.23948E-03   -0.24744E-03  2402   0.469E-02    0.129E-01
RMM:  56    -0.885255184363E+02   -0.24213E-03   -0.25037E-03  2419   0.467E-02    0.133E-01
RMM:  57    -0.885257624201E+02   -0.24398E-03   -0.24536E-03  2609   0.467E-02    0.138E-01
RMM:  58    -0.885260090543E+02   -0.24663E-03   -0.23383E-03  3146   0.471E-02    0.145E-01
RMM:  59    -0.885262530599E+02   -0.24401E-03   -0.24602E-03  2595   0.462E-02    0.150E-01
RMM:  60    -0.885264704423E+02   -0.21738E-03   -0.23055E-03  2378   0.458E-02    0.154E-01
RMM:  61    -0.885266798362E+02   -0.20939E-03   -0.22350E-03  2336   0.457E-02    0.158E-01
RMM:  62    -0.885269307247E+02   -0.25089E-03   -0.21781E-03  3352   0.472E-02    0.167E-01
RMM:  63    -0.885271279411E+02   -0.19722E-03   -0.20968E-03  2496   0.454E-02    0.172E-01
RMM:  64    -0.885273174306E+02   -0.18949E-03   -0.20014E-03  2549   0.453E-02    0.176E-01
RMM:  65    -0.885274981441E+02   -0.18071E-03   -0.19554E-03  2399   0.448E-02    0.180E-01
RMM:  66    -0.885276636824E+02   -0.16554E-03   -0.17910E-03  2418   0.445E-02    0.185E-01
RMM:  67    -0.885277563682E+02   -0.92686E-04   -0.17622E-03  3309   0.463E-02    0.183E-01
RMM:  68    -0.885278788385E+02   -0.12247E-03   -0.15861E-03  2592   0.442E-02    0.185E-01
RMM:  69    -0.885280137749E+02   -0.13494E-03   -0.15223E-03  2498   0.438E-02    0.190E-01
RMM:  70    -0.885281433352E+02   -0.12956E-03   -0.14672E-03  2472   0.433E-02    0.195E-01
RMM:  71    -0.885282684924E+02   -0.12516E-03   -0.14121E-03  2504   0.431E-02    0.200E-01
RMM:  72    -0.885282297696E+02    0.38723E-04   -0.12987E-03  4160   0.477E-02    0.193E-01
RMM:  73    -0.885283215020E+02   -0.91732E-04   -0.11861E-03  2400   0.426E-02    0.197E-01
RMM:  74    -0.885284413256E+02   -0.11982E-03   -0.13825E-03  2703   0.431E-02    0.203E-01
RMM:  75    -0.885285135628E+02   -0.72237E-04   -0.91103E-04  2484   0.423E-02    0.209E-01
RMM:  76    -0.885285713266E+02   -0.57764E-04   -0.79529E-04  2581   0.424E-02    0.216E-01
RMM:  77    -0.885284984919E+02    0.72835E-04   -0.76112E-04  3751   0.450E-02    0.212E-01
RMM:  78    -0.885285040531E+02   -0.55612E-05   -0.54754E-04  2750   0.419E-02    0.216E-01
RMM:  79    -0.885284967809E+02    0.72722E-05   -0.43872E-04  3135   0.421E-02    0.220E-01
RMM:  80    -0.885284776603E+02    0.19121E-04   -0.19597E-04  2747   0.410E-02    0.224E-01
RMM:  81    -0.885284572351E+02    0.20425E-04   -0.88797E-05  2608   0.409E-02    0.229E-01
RMM:  82    -0.885283046438E+02    0.15259E-03    0.14214E-05  3833   0.440E-02    0.225E-01
RMM:  83    -0.885282715293E+02    0.33114E-04    0.40280E-05  2377   0.400E-02    0.229E-01
RMM:  84    -0.885282476040E+02    0.23925E-04    0.89833E-05  2609   0.401E-02    0.235E-01
RMM:  85    -0.885282053771E+02    0.42227E-04    0.74574E-05  2619   0.397E-02    0.239E-01
RMM:  86    -0.885281772272E+02    0.28150E-04    0.93220E-05  2430   0.396E-02    0.244E-01
RMM:  87    -0.885280660609E+02    0.11117E-03   -0.33091E-05  3516   0.422E-02    0.242E-01
RMM:  88    -0.885280398050E+02    0.26256E-04    0.29178E-05  2423   0.394E-02    0.246E-01
RMM:  89    -0.885280293604E+02    0.10445E-04   -0.51105E-05  2595   0.396E-02    0.251E-01
RMM:  90    -0.885280092860E+02    0.20074E-04   -0.58974E-05  2417   0.392E-02    0.256E-01
RMM:  91    -0.885279986612E+02    0.10625E-04   -0.14015E-04  2376   0.388E-02    0.260E-01
RMM:  92    -0.885279619694E+02    0.36692E-04   -0.15882E-04  3108   0.394E-02    0.263E-01
RMM:  93    -0.885279536635E+02    0.83059E-05   -0.21141E-04  2384   0.378E-02    0.267E-01
RMM:  94    -0.885279530383E+02    0.62518E-06   -0.22153E-04  2197   0.376E-02    0.272E-01
RMM:  95    -0.885279562870E+02   -0.32487E-05   -0.27267E-04  2315   0.375E-02    0.276E-01
RMM:  96    -0.885279607976E+02   -0.45106E-05   -0.27466E-04  2230   0.375E-02    0.281E-01
RMM:  97    -0.885279353954E+02    0.25402E-04   -0.35802E-04  3266   0.394E-02    0.283E-01
RMM:  98    -0.885279502667E+02   -0.14871E-04   -0.30862E-04  2539   0.377E-02    0.287E-01
RMM:  99    -0.885279667376E+02   -0.16471E-04   -0.35282E-04  2564   0.375E-02    0.292E-01
RMM: 100    -0.885279831240E+02   -0.16386E-04   -0.33875E-04  2551   0.372E-02
   5 F= -.91660917E+02 E0= -.91658015E+02  d E =-.135950E+01
       N       E                     dE             d eps       ncg     rms          rms(c)
DAV:   1    -0.888058819835E+02   -0.27792E+00   -0.76971E+01  5752   0.153E+01    0.357E+00
RMM:   2    -0.900875174465E+02   -0.12816E+01   -0.12495E+01  6210   0.630E+00    0.275E+00
RMM:   3    -0.913243191364E+02   -0.12368E+01   -0.78794E+00  6730   0.282E+00    0.472E+00
RMM:   4    -0.912250178802E+02    0.99301E-01   -0.26196E+00  6817   0.140E+00    0.116E+00
RMM:   5    -0.912637817242E+02   -0.38764E-01   -0.45840E-01  7912   0.729E-01    0.644E-01
RMM:   6    -0.912748709903E+02   -0.11089E-01   -0.89826E-02  7712   0.340E-01    0.510E-01
RMM:   7    -0.912784598716E+02   -0.35889E-02   -0.59657E-02  7193   0.226E-01    0.181E-01
RMM:   8    -0.912812046006E+02   -0.27447E-02   -0.29893E-02  7036   0.190E-01    0.127E-01
RMM:   9    -0.912830292327E+02   -0.18246E-02   -0.18381E-02  6877   0.113E-01    0.452E-02
RMM:  10    -0.912841863840E+02   -0.11572E-02   -0.11009E-02  6373   0.733E-02    0.355E-02
RMM:  11    -0.912849402625E+02   -0.75388E-03   -0.71109E-03  5889   0.569E-02    0.122E-02
RMM:  12    -0.912854745565E+02   -0.53429E-03   -0.48475E-03  5770   0.397E-02    0.517E-03
RMM:  13    -0.912858384890E+02   -0.36393E-03   -0.32002E-03  5461   0.303E-02    0.434E-03
RMM:  14    -0.912861034459E+02   -0.26496E-03   -0.22376E-03  5213   0.239E-02    0.301E-03
RMM:  15    -0.912862845972E+02   -0.18115E-03   -0.15142E-03  4624   0.193E-02    0.160E-03
RMM:  16    -0.912864169556E+02   -0.13236E-03   -0.10760E-03  4177   0.161E-02    0.172E-03
RMM:  17    -0.912864935434E+02   -0.76588E-04   -0.73004E-04  3274   0.130E-02    0.941E-04
RMM:  18    -0.912865509274E+02   -0.57384E-04   -0.52399E-04  3132   0.115E-02    0.796E-04
RMM:  19    -0.912865885857E+02   -0.37658E-04   -0.36091E-04  3065   0.102E-02    0.849E-04
RMM:  20    -0.912866157262E+02   -0.27140E-04   -0.25903E-04  2723   0.903E-03    0.810E-04
RMM:  21    -0.912866343231E+02   -0.18597E-04   -0.18388E-04  2705   0.868E-03    0.739E-04
RMM:  22    -0.912866471676E+02   -0.12844E-04   -0.13211E-04  2493   0.791E-03    0.604E-04
RMM:  23    -0.912866561499E+02   -0.89823E-05   -0.96374E-05  2419   0.770E-03
   6 F= -.94416813E+02 E0= -.94414530E+02  d E =-.411539E+01
       N       E                     dE             d eps       ncg     rms          rms(c)
DAV:   1    -0.912409251336E+02    0.45722E-01   -0.21351E+01  5920   0.101E+01    0.133E+00
RMM:   2    -0.914286679595E+02   -0.18774E+00   -0.13368E+00  6097   0.306E+00    0.241E+00
RMM:   3    -0.913935306231E+02    0.35137E-01   -0.29736E-01  7089   0.157E+00    0.131E+00
RMM:   4    -0.913848716171E+02    0.86590E-02   -0.56942E-02  7454   0.637E-01    0.494E-01
RMM:   5    -0.913844722825E+02    0.39933E-03   -0.13292E-02  7525   0.263E-01    0.394E-01
RMM:   6    -0.913830669849E+02    0.14053E-02   -0.51749E-03  7585   0.147E-01    0.223E-01
RMM:   7    -0.913830889535E+02   -0.21969E-04   -0.25627E-03  7164   0.966E-02    0.662E-02
RMM:   8    -0.913832425823E+02   -0.15363E-03   -0.73005E-04  6144   0.539E-02    0.298E-02
RMM:   9    -0.913833337500E+02   -0.91168E-04   -0.40311E-04  5623   0.349E-02    0.118E-02
RMM:  10    -0.913833893894E+02   -0.55639E-04   -0.21673E-04  5324   0.235E-02    0.722E-03
RMM:  11    -0.913834355524E+02   -0.46163E-04   -0.13036E-04  5168   0.173E-02    0.282E-03
RMM:  12    -0.913834603685E+02   -0.24816E-04   -0.80015E-05  4853   0.127E-02    0.164E-03
RMM:  13    -0.913834841962E+02   -0.23828E-04   -0.52882E-05  4586   0.999E-03    0.809E-04
RMM:  14    -0.913834937961E+02   -0.96000E-05   -0.32926E-05  3721   0.795E-03
   7 F= -.94515090E+02 E0= -.94512615E+02  d E =-.421367E+01
       N       E                     dE             d eps       ncg     rms          rms(c)
DAV:   1    -0.750994344325E+02    0.16284E+02   -0.17318E+03  5736   0.132E+02    0.186E+01
RMM:   2    -0.901041798228E+02   -0.15005E+02   -0.14082E+02  6146   0.345E+01    0.104E+01
RMM:   3    -0.939181734587E+02   -0.38140E+01   -0.34251E+01  6507   0.146E+01    0.112E+01
RMM:   4    -0.909553173945E+02    0.29629E+01   -0.73754E+00  7452   0.776E+00    0.695E+00
RMM:   5    -0.908736415906E+02    0.81676E-01   -0.13888E+00  8159   0.291E+00    0.631E+00
RMM:   6    -0.908321293582E+02    0.41512E-01   -0.39960E-01  8438   0.129E+00    0.544E+00
RMM:   7    -0.908508271083E+02   -0.18698E-01   -0.61440E-01  7145   0.136E+00    0.221E+00
RMM:   8    -0.908149254933E+02    0.35902E-01   -0.16438E-01  8430   0.676E-01    0.185E+00
RMM:   9    -0.907679780376E+02    0.46947E-01   -0.67955E-02  7274   0.492E-01    0.114E+00
RMM:  10    -0.907687649472E+02   -0.78691E-03   -0.31230E-02  7920   0.305E-01    0.966E-01
RMM:  11    -0.907668944955E+02    0.18705E-02   -0.21527E-02  7598   0.257E-01    0.352E-01
RMM:  12    -0.907702754530E+02   -0.33810E-02   -0.20799E-02  7796   0.204E-01    0.167E-01
RMM:  13    -0.907702191905E+02    0.56262E-04   -0.61342E-03  7488   0.116E-01    0.749E-02
RMM:  14    -0.907705676038E+02   -0.34841E-03   -0.38159E-03  6817   0.771E-02    0.264E-02
RMM:  15    -0.907710446120E+02   -0.47701E-03   -0.23375E-03  6229   0.596E-02    0.514E-02
RMM:  16    -0.907713762496E+02   -0.33164E-03   -0.13129E-03  6110   0.467E-02    0.273E-02
RMM:  17    -0.907716892115E+02   -0.31296E-03   -0.11077E-03  5970   0.370E-02    0.915E-03
RMM:  18    -0.907718373217E+02   -0.14811E-03   -0.67892E-04  5716   0.284E-02    0.664E-03
RMM:  19    -0.907719185839E+02   -0.81262E-04   -0.40501E-04  5428   0.225E-02    0.711E-03
RMM:  20    -0.907719578435E+02   -0.39260E-04   -0.31750E-04  4962   0.181E-02    0.496E-03
RMM:  21    -0.907719788378E+02   -0.20994E-04   -0.19557E-04  4428   0.146E-02    0.359E-03
RMM:  22    -0.907719931301E+02   -0.14292E-04   -0.15147E-04  3955   0.122E-02    0.522E-03
RMM:  23    -0.907720100637E+02   -0.16934E-04   -0.10641E-04  4273   0.111E-02    0.397E-03
RMM:  24    -0.907720195835E+02   -0.95198E-05   -0.76412E-05  3430   0.910E-03
   8 F= -.93960742E+02 E0= -.93957014E+02  d E =0.554348E+00
       N       E                     dE             d eps       ncg     rms          rms(c)
DAV:   1    -0.909075641160E+02   -0.13555E+00   -0.15318E+01  5720   0.778E+00    0.105E+00
RMM:   2    -0.909438778389E+02   -0.36314E-01   -0.49248E-01  6046   0.182E+00    0.621E-01
RMM:   3    -0.909607881571E+02   -0.16910E-01   -0.17300E-01  7684   0.885E-01    0.568E-01
RMM:   4    -0.909597233842E+02    0.10648E-02   -0.24524E-02  7525   0.330E-01    0.410E-01
RMM:   5    -0.909575004820E+02    0.22229E-02   -0.48999E-03  7360   0.152E-01    0.286E-01
RMM:   6    -0.909576035749E+02   -0.10309E-03   -0.17642E-03  7257   0.830E-02    0.224E-01
RMM:   7    -0.909574481417E+02    0.15543E-03   -0.11385E-03  5939   0.678E-02    0.880E-02
RMM:   8    -0.909574680844E+02   -0.19943E-04   -0.49174E-04  5751   0.424E-02    0.678E-02
RMM:   9    -0.909575110759E+02   -0.42992E-04   -0.28868E-04  5471   0.271E-02    0.137E-02
RMM:  10    -0.909575411946E+02   -0.30119E-04   -0.14038E-04  5138   0.186E-02    0.184E-02
RMM:  11    -0.909575719341E+02   -0.30740E-04   -0.76073E-05  4733   0.130E-02    0.831E-03
RMM:  12    -0.909576268172E+02   -0.54883E-04   -0.54941E-05  4524   0.105E-02    0.872E-03
RMM:  13    -0.909576453886E+02   -0.18571E-04   -0.26765E-05  3799   0.766E-03    0.347E-03
RMM:  14    -0.909577075792E+02   -0.62191E-04   -0.32825E-05  4032   0.731E-03    0.457E-03
RMM:  15    -0.909577184477E+02   -0.10869E-04   -0.11868E-05  2497   0.501E-03    0.170E-03
RMM:  16    -0.909577312251E+02   -0.12777E-04   -0.11526E-05  2521   0.498E-03    0.510E-04
RMM:  17    -0.909577370333E+02   -0.58082E-05   -0.73428E-06  2270   0.452E-03
   9 F= -.94142224E+02 E0= -.94138695E+02  d E =0.372867E+00
       N       E                     dE             d eps       ncg     rms          rms(c)
DAV:   1    -0.911330398316E+02   -0.17531E+00   -0.15324E+01  5520   0.775E+00    0.105E+00
RMM:   2    -0.911689620904E+02   -0.35922E-01   -0.43875E-01  5947   0.167E+00    0.812E-01
RMM:   3    -0.911869345409E+02   -0.17972E-01   -0.16059E-01  7626   0.846E-01    0.842E-01
RMM:   4    -0.911749646777E+02    0.11970E-01   -0.24593E-02  7274   0.340E-01    0.377E-01
RMM:   5    -0.911739160758E+02    0.10486E-02   -0.52125E-03  7701   0.161E-01    0.269E-01
RMM:   6    -0.911740709181E+02   -0.15484E-03   -0.18384E-03  7235   0.859E-02    0.197E-01
RMM:   7    -0.911738627506E+02    0.20817E-03   -0.11209E-03  6036   0.660E-02    0.705E-02
RMM:   8    -0.911738917173E+02   -0.28967E-04   -0.49935E-04  5728   0.401E-02    0.452E-02
RMM:   9    -0.911739296782E+02   -0.37961E-04   -0.23508E-04  5398   0.248E-02    0.205E-02
RMM:  10    -0.911739796475E+02   -0.49969E-04   -0.13486E-04  5327   0.192E-02    0.999E-03
RMM:  11    -0.911740121525E+02   -0.32505E-04   -0.80276E-05  4719   0.131E-02    0.458E-03
RMM:  12    -0.911740927985E+02   -0.80646E-04   -0.60211E-05  4674   0.101E-02    0.346E-03
RMM:  13    -0.911741303611E+02   -0.37563E-04   -0.32667E-05  3818   0.733E-03    0.293E-03
RMM:  14    -0.911741750193E+02   -0.44658E-04   -0.26062E-05  3719   0.652E-03    0.127E-03
RMM:  15    -0.911741853543E+02   -0.10335E-04   -0.10966E-05  2514   0.519E-03    0.108E-03
RMM:  16    -0.911741961015E+02   -0.10747E-04   -0.12506E-05  2560   0.524E-03    0.313E-04
RMM:  17    -0.911741994886E+02   -0.33871E-05   -0.86168E-06  2135   0.484E-03
  10 F= -.94352284E+02 E0= -.94348960E+02  d E =0.162806E+00
       N       E                     dE             d eps       ncg     rms          rms(c)
DAV:   1    -0.916815025070E+02   -0.50731E+00   -0.16688E+02  5656   0.270E+01    0.492E+00
RMM:   2    -0.940861363123E+02   -0.24046E+01   -0.46931E+00  6002   0.587E+00    0.865E+00
RMM:   3    -0.921178430100E+02    0.19683E+01   -0.13341E+00  6454   0.272E+00    0.197E+00
RMM:   4    -0.920990957243E+02    0.18747E-01   -0.51330E-01  7342   0.149E+00    0.153E+00
RMM:   5    -0.920680950233E+02    0.31001E-01   -0.79982E-02  7974   0.655E-01    0.102E+00
RMM:   6    -0.920662461975E+02    0.18488E-02   -0.31947E-02  8494   0.328E-01    0.703E-01
RMM:   7    -0.920623290404E+02    0.39172E-02   -0.18525E-02  7903   0.226E-01    0.205E-01
RMM:   8    -0.920625457679E+02   -0.21673E-03   -0.47378E-03  7595   0.127E-01    0.136E-01
RMM:   9    -0.920627934849E+02   -0.24772E-03   -0.26491E-03  6690   0.804E-02    0.529E-02
RMM:  10    -0.920630105612E+02   -0.21708E-03   -0.12233E-03  6302   0.555E-02    0.465E-02
RMM:  11    -0.920631630395E+02   -0.15248E-03   -0.77417E-04  5886   0.404E-02    0.197E-02
RMM:  12    -0.920633740150E+02   -0.21098E-03   -0.48992E-04  5852   0.307E-02    0.885E-03
RMM:  13    -0.920635535683E+02   -0.17955E-03   -0.32318E-04  5607   0.225E-02    0.803E-03
RMM:  14    -0.920637282858E+02   -0.17472E-03   -0.19199E-04  5378   0.172E-02    0.541E-03
RMM:  15    -0.920638821359E+02   -0.15385E-03   -0.15074E-04  4960   0.132E-02    0.216E-03
RMM:  16    -0.920639617619E+02   -0.79626E-04   -0.84681E-05  4225   0.103E-02    0.181E-03
RMM:  17    -0.920639858608E+02   -0.24099E-04   -0.47154E-05  3509   0.830E-03    0.143E-03
RMM:  18    -0.920640071968E+02   -0.21336E-04   -0.39113E-05  3101   0.728E-03    0.705E-04
RMM:  19    -0.920640163705E+02   -0.91737E-05   -0.24638E-05  2835   0.652E-03
  11 F= -.95205282E+02 E0= -.95201974E+02  d E =-.690191E+00
       N       E                     dE             d eps       ncg     rms          rms(c)
DAV:   1    -0.922059221411E+02   -0.14191E+00   -0.42873E+01  5792   0.130E+01    0.382E+00
RMM:   2    -0.942350464517E+02   -0.20291E+01   -0.21652E+00  6025   0.333E+00    0.847E+00
RMM:   3    -0.923110003338E+02    0.19240E+01   -0.69648E-01  6183   0.183E+00    0.202E+00
RMM:   4    -0.922716361691E+02    0.39364E-01   -0.24484E-01  6743   0.936E-01    0.967E-01
RMM:   5    -0.922634513201E+02    0.81848E-02   -0.35172E-02  7773   0.435E-01    0.618E-01
RMM:   6    -0.922638184579E+02   -0.36714E-03   -0.11359E-02  8050   0.216E-01    0.467E-01
RMM:   7    -0.922623622091E+02    0.14562E-02   -0.58514E-03  7097   0.143E-01    0.946E-02
RMM:   8    -0.922625874251E+02   -0.22522E-03   -0.17764E-03  6540   0.776E-02    0.625E-02
RMM:   9    -0.922626403620E+02   -0.52937E-04   -0.76771E-04  5794   0.444E-02    0.307E-02
RMM:  10    -0.922626825904E+02   -0.42228E-04   -0.37709E-04  5578   0.306E-02    0.179E-02
RMM:  11    -0.922627121912E+02   -0.29601E-04   -0.22017E-04  5296   0.218E-02    0.108E-02
RMM:  12    -0.922627436831E+02   -0.31492E-04   -0.13310E-04  5045   0.152E-02    0.421E-03
RMM:  13    -0.922627799521E+02   -0.36269E-04   -0.85365E-05  4662   0.117E-02    0.309E-03
RMM:  14    -0.922627996498E+02   -0.19698E-04   -0.47264E-05  4146   0.889E-03    0.205E-03
RMM:  15    -0.922628301052E+02   -0.30455E-04   -0.38036E-05  3400   0.739E-03    0.103E-03
RMM:  16    -0.922628447219E+02   -0.14617E-04   -0.24723E-05  2889   0.649E-03    0.745E-04
RMM:  17    -0.922628542120E+02   -0.94901E-05   -0.19157E-05  2621   0.590E-03
  12 F= -.95398951E+02 E0= -.95395929E+02  d E =-.883861E+00
       N       E                     dE             d eps       ncg     rms          rms(c)
DAV:   1    -0.922695456429E+02   -0.67009E-02   -0.30712E+00  5824   0.350E+00    0.988E-01
RMM:   2    -0.924784162325E+02   -0.20887E+00   -0.19862E-01  6049   0.798E-01    0.406E+00
RMM:   3    -0.922559182298E+02    0.22250E+00   -0.58482E-02  6171   0.556E-01    0.435E-01
RMM:   4    -0.922694623531E+02   -0.13544E-01   -0.16679E-02  7096   0.260E-01    0.254E-01
RMM:   5    -0.922691188822E+02    0.34347E-03   -0.30849E-03  7083   0.113E-01    0.156E-01
RMM:   6    -0.922689807336E+02    0.13815E-03   -0.78202E-04  6043   0.572E-02    0.518E-02
RMM:   7    -0.922690098214E+02   -0.29088E-04   -0.32211E-04  5536   0.336E-02    0.174E-02
RMM:   8    -0.922690147731E+02   -0.49516E-05   -0.86435E-05  5183   0.182E-02
  13 F= -.95406391E+02 E0= -.95403266E+02  d E =-.891301E+00
       N       E                     dE             d eps       ncg     rms          rms(c)
DAV:   1    -0.922735261531E+02   -0.45163E-02   -0.37048E-01  5912   0.120E+00    0.363E-01
RMM:   2    -0.923017455975E+02   -0.28219E-01   -0.23436E-02  5928   0.302E-01    0.142E+00
RMM:   3    -0.922714098444E+02    0.30336E-01   -0.75380E-03  6020   0.202E-01    0.145E-01
RMM:   4    -0.922734921308E+02   -0.20823E-02   -0.22711E-03  6177   0.971E-02    0.863E-02
RMM:   5    -0.922734920429E+02    0.87915E-07   -0.40922E-04  5608   0.433E-02    0.515E-02
RMM:   6    -0.922734866105E+02    0.54323E-05   -0.86841E-05  5164   0.225E-02
  14 F= -.95410411E+02 E0= -.95407327E+02  d E =-.895321E+00
       N       E                     dE             d eps       ncg     rms          rms(c)
DAV:   1    -0.923034765937E+02   -0.29985E-01   -0.10060E+02  5552   0.231E+01    0.409E+00
RMM:   2    -0.936155821224E+02   -0.13121E+01   -0.55761E+00  6179   0.516E+00    0.795E+00
RMM:   3    -0.927202747213E+02    0.89531E+00   -0.11585E+00  7395   0.296E+00    0.190E+00
RMM:   4    -0.927058885239E+02    0.14386E-01   -0.21062E-01  7600   0.113E+00    0.132E+00
RMM:   5    -0.926800820719E+02    0.25806E-01   -0.42521E-02  7951   0.500E-01    0.923E-01
RMM:   6    -0.926737611815E+02    0.63209E-02   -0.20672E-02  8118   0.313E-01    0.363E-01
RMM:   7    -0.926742585613E+02   -0.49738E-03   -0.87298E-03  8070   0.202E-01    0.124E-01
RMM:   8    -0.926744720877E+02   -0.21353E-03   -0.26798E-03  8079   0.107E-01    0.709E-02
RMM:   9    -0.926746213573E+02   -0.14927E-03   -0.13256E-03  6707   0.613E-02    0.306E-02
RMM:  10    -0.926747030223E+02   -0.81665E-04   -0.60944E-04  6048   0.396E-02    0.187E-02
RMM:  11    -0.926747697148E+02   -0.66692E-04   -0.36319E-04  5694   0.286E-02    0.918E-03
RMM:  12    -0.926748302588E+02   -0.60544E-04   -0.20510E-04  5459   0.211E-02    0.517E-03
RMM:  13    -0.926748560363E+02   -0.25777E-04   -0.13131E-04  5084   0.155E-02    0.322E-03
RMM:  14    -0.926748855775E+02   -0.29541E-04   -0.73688E-05  4824   0.118E-02    0.175E-03
RMM:  15    -0.926748970441E+02   -0.11467E-04   -0.51597E-05  4128   0.912E-03    0.148E-03
RMM:  16    -0.926749114619E+02   -0.14418E-04   -0.32228E-05  3579   0.766E-03    0.637E-04
RMM:  17    -0.926749198819E+02   -0.84200E-05   -0.23395E-05  3060   0.653E-03
  15 F= -.95819733E+02 E0= -.95819300E+02  d E =-.409321E+00
       N       E                     dE             d eps       ncg     rms          rms(c)
DAV:   1    -0.926699643441E+02    0.49471E-02   -0.35159E+00  5832   0.445E+00    0.632E-01
RMM:   2    -0.927058894551E+02   -0.35925E-01   -0.18651E-01  6120   0.109E+00    0.112E+00
RMM:   3    -0.926852144229E+02    0.20675E-01   -0.39154E-02  7306   0.572E-01    0.297E-01
RMM:   4    -0.926852611645E+02   -0.46742E-04   -0.80246E-03  7741   0.229E-01    0.216E-01
RMM:   5    -0.926845308562E+02    0.73031E-03   -0.16415E-03  7492   0.102E-01    0.133E-01
RMM:   6    -0.926844004911E+02    0.13037E-03   -0.87923E-04  6523   0.650E-02    0.443E-02
RMM:   7    -0.926844301146E+02   -0.29623E-04   -0.33318E-04  5872   0.388E-02    0.176E-02
RMM:   8    -0.926844405805E+02   -0.10466E-04   -0.10585E-04  5258   0.217E-02    0.102E-02
RMM:   9    -0.926844506407E+02   -0.10060E-04   -0.67540E-05  4744   0.142E-02    0.365E-03
RMM:  10    -0.926844569738E+02   -0.63331E-05   -0.31279E-05  4191   0.993E-03
  16 F= -.95830754E+02 E0= -.95830798E+02  d E =-.420343E+00
       N       E                     dE             d eps       ncg     rms          rms(c)
DAV:   1    -0.926030040612E+02    0.81447E-01   -0.68604E+01  5496   0.211E+01    0.228E+00
RMM:   2    -0.928389487552E+02   -0.23594E+00   -0.25221E+00  6266   0.481E+00    0.994E-01
RMM:   3    -0.929252108996E+02   -0.86262E-01   -0.67814E-01  8128   0.252E+00    0.138E+00
RMM:   4    -0.929098030365E+02    0.15408E-01   -0.10790E-01  8396   0.974E-01    0.101E+00
RMM:   5    -0.929072035050E+02    0.25995E-02   -0.22989E-02  8755   0.381E-01    0.819E-01
RMM:   6    -0.929070332451E+02    0.17026E-03   -0.59221E-03  8299   0.199E-01    0.557E-01
RMM:   7    -0.929068799707E+02    0.15327E-03   -0.88007E-03  7574   0.205E-01    0.354E-01
RMM:   8    -0.929069284080E+02   -0.48437E-04   -0.19617E-03  8094   0.108E-01    0.260E-01
RMM:   9    -0.929068189984E+02    0.10941E-03   -0.10551E-03  7147   0.675E-02    0.896E-02
RMM:  10    -0.929068341217E+02   -0.15123E-04   -0.51972E-04  6682   0.440E-02    0.349E-02
RMM:  11    -0.929068631625E+02   -0.29041E-04   -0.24934E-04  6156   0.306E-02    0.509E-02
RMM:  12    -0.929068748407E+02   -0.11678E-04   -0.18412E-04  5779   0.243E-02    0.821E-03
RMM:  13    -0.929068852985E+02   -0.10458E-04   -0.94362E-05  5126   0.157E-02    0.839E-03
RMM:  14    -0.929068915675E+02   -0.62690E-05   -0.50164E-05  4637   0.115E-02
  17 F= -.96059363E+02 E0= -.96059666E+02  d E =-.228609E+00
       N       E                     dE             d eps       ncg     rms          rms(c)
DAV:   1    -0.928832907265E+02    0.23595E-01   -0.89879E+00  5632   0.751E+00    0.753E-01
RMM:   2    -0.929122251561E+02   -0.28934E-01   -0.31327E-01  6217   0.169E+00    0.343E-01
RMM:   3    -0.929236299514E+02   -0.11405E-01   -0.84181E-02  7965   0.865E-01    0.435E-01
RMM:   4    -0.929209116531E+02    0.27183E-02   -0.13262E-02  8502   0.350E-01    0.285E-01
RMM:   5    -0.929208683615E+02    0.43292E-04   -0.26964E-03  8390   0.136E-01    0.203E-01
RMM:   6    -0.929209503636E+02   -0.82002E-04   -0.10014E-03  7540   0.746E-02    0.128E-01
RMM:   7    -0.929209607784E+02   -0.10415E-04   -0.83618E-04  6925   0.616E-02    0.614E-02
RMM:   8    -0.929209776870E+02   -0.16909E-04   -0.26048E-04  6251   0.363E-02    0.399E-02
RMM:   9    -0.929209820164E+02   -0.43295E-05   -0.14066E-04  5393   0.229E-02    0.149E-02
RMM:  10    -0.929209877252E+02   -0.57087E-05   -0.70022E-05  4924   0.152E-02
  18 F= -.96075874E+02 E0= -.96076123E+02  d E =-.245120E+00
       N       E                     dE             d eps       ncg     rms          rms(c)
DAV:   1    -0.929946362216E+02   -0.73654E-01   -0.15572E+01  5456   0.103E+01    0.109E+00
RMM:   2    -0.930486432646E+02   -0.54007E-01   -0.56341E-01  6393   0.230E+00    0.736E-01
RMM:   3    -0.930747885752E+02   -0.26145E-01   -0.15195E-01  8288   0.122E+00    0.874E-01
RMM:   4    -0.930585314161E+02    0.16257E-01   -0.23760E-02  8372   0.491E-01    0.360E-01
RMM:   5    -0.930588088263E+02   -0.27741E-03   -0.54198E-03  8826   0.196E-01    0.263E-01
RMM:   6    -0.930588976827E+02   -0.88856E-04   -0.17874E-03  8204   0.105E-01    0.172E-01
RMM:   7    -0.930587956766E+02    0.10201E-03   -0.94472E-04  7682   0.743E-02    0.426E-02
RMM:   8    -0.930588562625E+02   -0.60586E-04   -0.45498E-04  7066   0.456E-02    0.292E-02
RMM:   9    -0.930588675341E+02   -0.11272E-04   -0.18957E-04  6331   0.280E-02    0.155E-02
RMM:  10    -0.930588771902E+02   -0.96561E-05   -0.10807E-04  5603   0.193E-02    0.119E-02
RMM:  11    -0.930588823906E+02   -0.52004E-05   -0.60410E-05  5029   0.138E-02
  19 F= -.96217933E+02 E0= -.96217572E+02  d E =-.142058E+00
       N       E                     dE             d eps       ncg     rms          rms(c)
DAV:   1    -0.926447374460E+02    0.41414E+00   -0.14148E+02  5448   0.317E+01    0.370E+00
RMM:   2    -0.931515503911E+02   -0.50681E+00   -0.55107E+00  6422   0.699E+00    0.171E+00
RMM:   3    -0.933813003750E+02   -0.22975E+00   -0.14459E+00  8272   0.415E+00    0.257E+00
RMM:   4    -0.933001507098E+02    0.81150E-01   -0.23444E-01  8421   0.142E+00    0.153E+00
RMM:   5    -0.932964354086E+02    0.37153E-02   -0.44408E-02  9010   0.580E-01    0.108E+00
RMM:   6    -0.932991473220E+02   -0.27119E-02   -0.22867E-02  8172   0.347E-01    0.520E-01
RMM:   7    -0.932949583493E+02    0.41890E-02   -0.85780E-03  7978   0.233E-01    0.291E-01
RMM:   8    -0.932949628690E+02   -0.45197E-05   -0.44306E-03  7657   0.163E-01    0.204E-01
RMM:   9    -0.932949799122E+02   -0.17043E-04   -0.19503E-03  8408   0.967E-02    0.870E-02
RMM:  10    -0.932950432467E+02   -0.63334E-04   -0.86044E-04  7954   0.584E-02    0.582E-02
RMM:  11    -0.932950816107E+02   -0.38364E-04   -0.55868E-04  7043   0.434E-02    0.198E-02
RMM:  12    -0.932951132088E+02   -0.31598E-04   -0.28508E-04  6765   0.294E-02    0.171E-02
RMM:  13    -0.932951313939E+02   -0.18185E-04   -0.18578E-04  6113   0.230E-02    0.649E-03
RMM:  14    -0.932951434299E+02   -0.12036E-04   -0.11662E-04  5519   0.169E-02    0.349E-03
RMM:  15    -0.932951511036E+02   -0.76737E-05   -0.74037E-05  4927   0.129E-02
  20 F= -.96468953E+02 E0= -.96466840E+02  d E =-.393079E+00
       N       E                     dE             d eps       ncg     rms          rms(c)
DAV:   1    -0.932195527771E+02    0.75591E-01   -0.22732E+01  5544   0.124E+01    0.121E+00
RMM:   2    -0.932875166932E+02   -0.67964E-01   -0.75226E-01  6437   0.273E+00    0.618E-01
RMM:   3    -0.933056896362E+02   -0.18173E-01   -0.19133E-01  8540   0.142E+00    0.362E-01
RMM:   4    -0.933080621483E+02   -0.23725E-02   -0.30790E-02  8639   0.531E-01    0.284E-01
RMM:   5    -0.933085365439E+02   -0.47440E-03   -0.59189E-03  8603   0.202E-01    0.149E-01
RMM:   6    -0.933088172988E+02   -0.28075E-03   -0.25919E-03  8164   0.109E-01    0.144E-01
RMM:   7    -0.933087395838E+02    0.77715E-04   -0.90318E-04  7733   0.660E-02    0.686E-02
RMM:   8    -0.933087306633E+02    0.89205E-05   -0.54200E-04  7134   0.442E-02    0.488E-02
RMM:   9    -0.933087493230E+02   -0.18660E-04   -0.29769E-04  6601   0.311E-02    0.270E-02
RMM:  10    -0.933087621764E+02   -0.12853E-04   -0.15217E-04  5968   0.223E-02    0.101E-02
RMM:  11    -0.933087708294E+02   -0.86530E-05   -0.88817E-05  5495   0.159E-02
  21 F= -.96489788E+02 E0= -.96487197E+02  d E =-.413914E+00
       N       E                     dE             d eps       ncg     rms          rms(c)
DAV:   1    -0.932428119746E+02    0.65950E-01   -0.30507E+01  5456   0.142E+01    0.146E+00
RMM:   2    -0.933417030576E+02   -0.98891E-01   -0.10417E+00  6266   0.310E+00    0.991E-01
RMM:   3    -0.933897191670E+02   -0.48016E-01   -0.27025E-01  8233   0.156E+00    0.142E+00
RMM:   4    -0.933566733738E+02    0.33046E-01   -0.41043E-02  8738   0.611E-01    0.649E-01
RMM:   5    -0.933602110825E+02   -0.35377E-02   -0.10635E-02  8660   0.264E-01    0.519E-01
RMM:   6    -0.933583974885E+02    0.18136E-02   -0.41023E-03  8465   0.157E-01    0.256E-01
RMM:   7    -0.933587340647E+02   -0.33658E-03   -0.36653E-03  7958   0.126E-01    0.104E-01
RMM:   8    -0.933588001563E+02   -0.66092E-04   -0.91173E-04  7899   0.676E-02    0.634E-02
RMM:   9    -0.933588464955E+02   -0.46339E-04   -0.53187E-04  7114   0.452E-02    0.321E-02
RMM:  10    -0.933588841211E+02   -0.37626E-04   -0.23999E-04  6456   0.289E-02    0.225E-02
RMM:  11    -0.933589056782E+02   -0.21557E-04   -0.16015E-04  5932   0.227E-02    0.151E-02
RMM:  12    -0.933589231188E+02   -0.17441E-04   -0.83829E-05  5334   0.159E-02    0.363E-03
RMM:  13    -0.933589346070E+02   -0.11488E-04   -0.53902E-05  4806   0.114E-02    0.342E-03
RMM:  14    -0.933589423125E+02   -0.77054E-05   -0.30460E-05  4362   0.920E-03
  22 F= -.96547036E+02 E0= -.96544032E+02  d E =-.572479E-01
       N       E                     dE             d eps       ncg     rms          rms(c)
DAV:   1    -0.933587010574E+02    0.23355E-03   -0.23449E-02  5800   0.392E-01    0.411E-02
RMM:   2    -0.933587832201E+02   -0.82163E-04   -0.83338E-04  6013   0.837E-02    0.329E-02
RMM:   3    -0.933588116313E+02   -0.28411E-04   -0.19445E-04  6849   0.430E-02    0.400E-02
RMM:   4    -0.933587882593E+02    0.23372E-04   -0.50850E-05  4943   0.202E-02    0.130E-02
RMM:   5    -0.933587952516E+02   -0.69923E-05   -0.17803E-05  3659   0.108E-02
  23 F= -.96547086E+02 E0= -.96544071E+02  d E =-.572978E-01
       N       E                     dE             d eps       ncg     rms          rms(c)
DAV:   1    -0.933738680744E+02   -0.15080E-01   -0.12627E+01  5480   0.900E+00    0.866E-01
RMM:   2    -0.934081297152E+02   -0.34262E-01   -0.37107E-01  6307   0.185E+00    0.425E-01
RMM:   3    -0.934187486883E+02   -0.10619E-01   -0.86254E-02  8426   0.961E-01    0.501E-01
RMM:   4    -0.934176616487E+02    0.10870E-02   -0.14326E-02  8392   0.358E-01    0.347E-01
RMM:   5    -0.934173953239E+02    0.26632E-03   -0.28722E-03  8482   0.146E-01    0.200E-01
RMM:   6    -0.934176607015E+02   -0.26538E-03   -0.11969E-03  7756   0.827E-02    0.141E-01
RMM:   7    -0.934174724585E+02    0.18824E-03   -0.66098E-04  7305   0.608E-02    0.354E-02
RMM:   8    -0.934174988938E+02   -0.26435E-04   -0.29390E-04  6267   0.351E-02    0.220E-02
RMM:   9    -0.934175092932E+02   -0.10399E-04   -0.13871E-04  5606   0.227E-02    0.159E-02
RMM:  10    -0.934175165909E+02   -0.72977E-05   -0.71848E-05  5075   0.156E-02
  24 F= -.96608635E+02 E0= -.96605471E+02  d E =-.615498E-01
       N       E                     dE             d eps       ncg     rms          rms(c)
DAV:   1    -0.932256250724E+02    0.19188E+00   -0.75207E+01  5464   0.221E+01    0.239E+00
RMM:   2    -0.934469696254E+02   -0.22134E+00   -0.23691E+00  6269   0.465E+00    0.120E+00
RMM:   3    -0.935469969730E+02   -0.10003E+00   -0.54758E-01  8375   0.251E+00    0.219E+00
RMM:   4    -0.934967305243E+02    0.50266E-01   -0.10391E-01  8422   0.935E-01    0.955E-01
RMM:   5    -0.934991236647E+02   -0.23931E-02   -0.19381E-02  8936   0.386E-01    0.627E-01
RMM:   6    -0.935003069202E+02   -0.11833E-02   -0.83242E-03  8216   0.218E-01    0.425E-01
RMM:   7    -0.934985906906E+02    0.17162E-02   -0.51669E-03  7724   0.174E-01    0.145E-01
RMM:   8    -0.934987040390E+02   -0.11335E-03   -0.19255E-03  8080   0.101E-01    0.936E-02
RMM:   9    -0.934987545022E+02   -0.50463E-04   -0.90680E-04  7778   0.598E-02    0.522E-02
RMM:  10    -0.934987930832E+02   -0.38581E-04   -0.42654E-04  6712   0.384E-02    0.306E-02
RMM:  11    -0.934988377918E+02   -0.44709E-04   -0.29867E-04  6165   0.286E-02    0.112E-02
RMM:  12    -0.934988694297E+02   -0.31638E-04   -0.15743E-04  5679   0.207E-02    0.508E-03
RMM:  13    -0.934988982097E+02   -0.28780E-04   -0.10057E-04  5214   0.156E-02    0.290E-03
RMM:  14    -0.934989229125E+02   -0.24703E-04   -0.64769E-05  4811   0.122E-02    0.241E-03
RMM:  15    -0.934989425041E+02   -0.19592E-04   -0.42705E-05  4458   0.971E-03    0.105E-03
RMM:  16    -0.934989599280E+02   -0.17424E-04   -0.29268E-05  4047   0.810E-03    0.727E-04
RMM:  17    -0.934989665451E+02   -0.66170E-05   -0.18529E-05  3374   0.685E-03
  25 F= -.96696194E+02 E0= -.96692593E+02  d E =-.149109E+00
       N       E                     dE             d eps       ncg     rms          rms(c)
DAV:   1    -0.934515023543E+02    0.47458E-01   -0.16402E+01  5464   0.102E+01    0.986E-01
RMM:   2    -0.934946453686E+02   -0.43143E-01   -0.46839E-01  6300   0.210E+00    0.501E-01
RMM:   3    -0.935092162648E+02   -0.14571E-01   -0.10853E-01  8452   0.109E+00    0.680E-01
RMM:   4    -0.935056860381E+02    0.35302E-02   -0.17944E-02  8512   0.402E-01    0.400E-01
RMM:   5    -0.935056914258E+02   -0.53877E-05   -0.36827E-03  8644   0.169E-01    0.229E-01
RMM:   6    -0.935061415762E+02   -0.45015E-03   -0.15970E-03  7959   0.956E-02    0.162E-01
RMM:   7    -0.935058037254E+02    0.33785E-03   -0.83062E-04  7539   0.702E-02    0.419E-02
RMM:   8    -0.935058358543E+02   -0.32129E-04   -0.39744E-04  6699   0.411E-02    0.248E-02
RMM:   9    -0.935058501215E+02   -0.14267E-04   -0.18337E-04  5932   0.261E-02    0.182E-02
RMM:  10    -0.935058613227E+02   -0.11201E-04   -0.92122E-05  5416   0.180E-02    0.886E-03
RMM:  11    -0.935058728866E+02   -0.11564E-04   -0.62666E-05  4889   0.134E-02    0.431E-03
RMM:  12    -0.935058794439E+02   -0.65573E-05   -0.31911E-05  4411   0.968E-03
  26 F= -.96705662E+02 E0= -.96701838E+02  d E =-.158576E+00
       N       E                     dE             d eps       ncg     rms          rms(c)
DAV:   1    -0.935328463223E+02   -0.26973E-01   -0.10833E+01  5672   0.852E+00    0.803E-01
RMM:   2    -0.935599201712E+02   -0.27074E-01   -0.27840E-01  6162   0.180E+00    0.610E-01
RMM:   3    -0.935742308631E+02   -0.14311E-01   -0.82296E-02  8046   0.951E-01    0.848E-01
RMM:   4    -0.935643671528E+02    0.98637E-02   -0.14714E-02  8352   0.373E-01    0.280E-01
RMM:   5    -0.935656051528E+02   -0.12380E-02   -0.28376E-03  8393   0.146E-01    0.233E-01
RMM:   6    -0.935653217680E+02    0.28338E-03   -0.96492E-04  7872   0.785E-02    0.136E-01
RMM:   7    -0.935654356345E+02   -0.11387E-03   -0.83012E-04  6740   0.605E-02    0.419E-02
RMM:   8    -0.935654492733E+02   -0.13639E-04   -0.22611E-04  5735   0.327E-02    0.218E-02
RMM:   9    -0.935654593782E+02   -0.10105E-04   -0.12823E-04  5380   0.229E-02    0.148E-02
RMM:  10    -0.935654687719E+02   -0.93937E-05   -0.69107E-05  4953   0.152E-02
  27 F= -.96766124E+02 E0= -.96762158E+02  d E =-.604624E-01
       N       E                     dE             d eps       ncg     rms          rms(c)
DAV:   1    -0.933882907294E+02    0.17717E+00   -0.84397E+01  5440   0.241E+01    0.243E+00
RMM:   2    -0.936114140192E+02   -0.22312E+00   -0.23474E+00  6224   0.530E+00    0.168E+00
RMM:   3    -0.937485980255E+02   -0.13718E+00   -0.76901E-01  7863   0.281E+00    0.226E+00
RMM:   4    -0.936651135501E+02    0.83484E-01   -0.12523E-01  8402   0.110E+00    0.999E-01
RMM:   5    -0.936680029948E+02   -0.28894E-02   -0.25603E-02  8517   0.424E-01    0.846E-01
RMM:   6    -0.936658881890E+02    0.21148E-02   -0.72296E-03  8670   0.228E-01    0.529E-01
RMM:   7    -0.936669793224E+02   -0.10911E-02   -0.92443E-03  7934   0.195E-01    0.255E-01
RMM:   8    -0.936667821008E+02    0.19722E-03   -0.19077E-03  7115   0.109E-01    0.149E-01
RMM:   9    -0.936668130370E+02   -0.30936E-04   -0.12214E-03  7443   0.755E-02    0.618E-02
RMM:  10    -0.936668802792E+02   -0.67242E-04   -0.55801E-04  6718   0.448E-02    0.555E-02
RMM:  11    -0.936668906263E+02   -0.10347E-04   -0.31098E-04  5916   0.317E-02    0.309E-02
RMM:  12    -0.936669110586E+02   -0.20432E-04   -0.18828E-04  5512   0.226E-02    0.159E-02
RMM:  13    -0.936669303303E+02   -0.19272E-04   -0.11637E-04  5169   0.161E-02    0.392E-03
RMM:  14    -0.936669432478E+02   -0.12917E-04   -0.68037E-05  4829   0.126E-02    0.425E-03
RMM:  15    -0.936669515913E+02   -0.83435E-05   -0.45836E-05  4338   0.981E-03
  28 F= -.96870172E+02 E0= -.96865804E+02  d E =-.164511E+00
       N       E                     dE             d eps       ncg     rms          rms(c)
DAV:   1    -0.922555583068E+02    0.14114E+01   -0.33750E+02  5440   0.506E+01    0.598E+00
RMM:   2    -0.932749506830E+02   -0.10194E+01   -0.11005E+01  6199   0.113E+01    0.309E+00
RMM:   3    -0.939238275994E+02   -0.64888E+00   -0.36994E+00  7511   0.621E+00    0.417E+00
RMM:   4    -0.935951086591E+02    0.32872E+00   -0.57113E-01  8285   0.238E+00    0.268E+00
RMM:   5    -0.935774491919E+02    0.17659E-01   -0.13418E-01  8539   0.920E-01    0.235E+00
RMM:   6    -0.935699025809E+02    0.75466E-02   -0.37548E-02  8841   0.473E-01    0.168E+00
RMM:   7    -0.935795446019E+02   -0.96420E-02   -0.37830E-02  7990   0.397E-01    0.983E-01
RMM:   8    -0.935724905416E+02    0.70541E-02   -0.20046E-02  7130   0.323E-01    0.793E-01
RMM:   9    -0.935713117152E+02    0.11788E-02   -0.76001E-03  6983   0.221E-01    0.355E-01
RMM:  10    -0.935707353490E+02    0.57637E-03   -0.45000E-03  8366   0.126E-01    0.164E-01
RMM:  11    -0.935708882760E+02   -0.15293E-03   -0.12366E-03  7811   0.710E-02    0.473E-02
RMM:  12    -0.935710324310E+02   -0.14415E-03   -0.78643E-04  6799   0.487E-02    0.257E-02
RMM:  13    -0.935710947402E+02   -0.62309E-04   -0.40533E-04  6272   0.328E-02    0.237E-02
RMM:  14    -0.935711442609E+02   -0.49521E-04   -0.26815E-04  5773   0.250E-02    0.189E-02
RMM:  15    -0.935711845515E+02   -0.40291E-04   -0.18992E-04  5399   0.191E-02    0.921E-03
RMM:  16    -0.935712098034E+02   -0.25252E-04   -0.11166E-04  4939   0.148E-02    0.464E-03
RMM:  17    -0.935712247213E+02   -0.14918E-04   -0.79812E-05  4496   0.113E-02    0.266E-03
RMM:  18    -0.935712379083E+02   -0.13187E-04   -0.51518E-05  4291   0.949E-03    0.140E-03
RMM:  19    -0.935712430003E+02   -0.50919E-05   -0.35689E-05  3761   0.779E-03
  29 F= -.96780971E+02 E0= -.96776622E+02  d E =-.753095E-01
       N       E                     dE             d eps       ncg     rms          rms(c)
DAV:   1    -0.929757716659E+02    0.59547E+00   -0.17361E+02  5464   0.354E+01    0.483E+00
RMM:   2    -0.936743081776E+02   -0.69854E+00   -0.63714E+00  6120   0.806E+00    0.309E+00
RMM:   3    -0.939072811649E+02   -0.23297E+00   -0.16729E+00  7842   0.463E+00    0.399E+00
RMM:   4    -0.937046452799E+02    0.20264E+00   -0.37982E-01  8091   0.178E+00    0.203E+00
RMM:   5    -0.936843108838E+02    0.20334E-01   -0.50920E-02  8779   0.699E-01    0.131E+00
RMM:   6    -0.936842447702E+02    0.66114E-04   -0.31503E-02  8467   0.390E-01    0.930E-01
RMM:   7    -0.936804730898E+02    0.37717E-02   -0.21834E-02  7441   0.323E-01    0.348E-01
RMM:   8    -0.936807015273E+02   -0.22844E-03   -0.47030E-03  8844   0.167E-01    0.228E-01
RMM:   9    -0.936807357389E+02   -0.34212E-04   -0.34039E-03  7236   0.115E-01    0.141E-01
RMM:  10    -0.936807184385E+02    0.17300E-04   -0.88806E-04  7913   0.668E-02    0.822E-02
RMM:  11    -0.936807789557E+02   -0.60517E-04   -0.87548E-04  6871   0.507E-02    0.466E-02
RMM:  12    -0.936808308292E+02   -0.51874E-04   -0.31251E-04  6560   0.321E-02    0.167E-02
RMM:  13    -0.936808590853E+02   -0.28256E-04   -0.19588E-04  5992   0.224E-02    0.698E-03
RMM:  14    -0.936808874456E+02   -0.28360E-04   -0.11589E-04  5327   0.170E-02    0.493E-03
RMM:  15    -0.936809084650E+02   -0.21019E-04   -0.78986E-05  4875   0.129E-02    0.335E-03
RMM:  16    -0.936809197738E+02   -0.11309E-04   -0.45293E-05  4375   0.106E-02    0.318E-03
RMM:  17    -0.936809359259E+02   -0.16152E-04   -0.39043E-05  4246   0.871E-03    0.248E-03
RMM:  18    -0.936809356682E+02    0.25770E-06   -0.20399E-05  3656   0.697E-03
  30 F= -.96885711E+02 E0= -.96881204E+02  d E =-.180050E+00
       N       E                     dE             d eps       ncg     rms          rms(c)
DAV:   1    -0.936229194075E+02    0.58017E-01   -0.42696E+01  5440   0.170E+01    0.164E+00
RMM:   2    -0.937241432895E+02   -0.10122E+00   -0.11221E+00  6081   0.361E+00    0.938E-01
RMM:   3    -0.937967311362E+02   -0.72588E-01   -0.36555E-01  8172   0.204E+00    0.181E+00
RMM:   4    -0.937525540084E+02    0.44177E-01   -0.53535E-02  8189   0.692E-01    0.642E-01
RMM:   5    -0.937558852944E+02   -0.33313E-02   -0.10170E-02  8628   0.281E-01    0.445E-01
RMM:   6    -0.937573466112E+02   -0.14613E-02   -0.46385E-03  8439   0.158E-01    0.225E-01
RMM:   7    -0.937561020736E+02    0.12445E-02   -0.17216E-03  7535   0.960E-02    0.983E-02
RMM:   8    -0.937560512113E+02    0.50862E-04   -0.64732E-04  6792   0.649E-02    0.441E-02
RMM:   9    -0.937560936818E+02   -0.42470E-04   -0.44256E-04  6551   0.408E-02    0.278E-02
RMM:  10    -0.937561154925E+02   -0.21811E-04   -0.17923E-04  5721   0.281E-02    0.118E-02
RMM:  11    -0.937561350844E+02   -0.19592E-04   -0.10750E-04  5294   0.175E-02    0.101E-02
RMM:  12    -0.937561514487E+02   -0.16364E-04   -0.60636E-05  4904   0.141E-02    0.334E-03
RMM:  13    -0.937561611222E+02   -0.96735E-05   -0.35880E-05  4436   0.951E-03
  31 F= -.96959910E+02 E0= -.96955795E+02  d E =-.741988E-01
       N       E                     dE             d eps       ncg     rms          rms(c)
DAV:   1    -0.937526285220E+02    0.35229E-02   -0.22896E+00  5928   0.392E+00    0.363E-01
RMM:   2    -0.937575768528E+02   -0.49483E-02   -0.56601E-02  6031   0.798E-01    0.190E-01
RMM:   3    -0.937605324675E+02   -0.29556E-02   -0.18263E-02  8075   0.440E-01    0.309E-01
RMM:   4    -0.937591323763E+02    0.14001E-02   -0.27801E-03  7954   0.158E-01    0.149E-01
RMM:   5    -0.937593404929E+02   -0.20812E-03   -0.58547E-04  7706   0.638E-02    0.111E-01
RMM:   6    -0.937594468776E+02   -0.10638E-03   -0.27116E-04  5944   0.358E-02    0.816E-02
RMM:   7    -0.937593570990E+02    0.89779E-04   -0.16367E-04  5571   0.288E-02    0.302E-02
RMM:   8    -0.937593645855E+02   -0.74865E-05   -0.59888E-05  5037   0.173E-02
  32 F= -.96962893E+02 E0= -.96958884E+02  d E =-.771814E-01
       N       E                     dE             d eps       ncg     rms          rms(c)
DAV:   1    -0.937692522490E+02   -0.98951E-02   -0.23233E+01  5480   0.125E+01    0.122E+00
RMM:   2    -0.938250609952E+02   -0.55809E-01   -0.53761E-01  6171   0.267E+00    0.924E-01
RMM:   3    -0.938549489862E+02   -0.29888E-01   -0.18699E-01  8023   0.141E+00    0.117E+00
RMM:   4    -0.938340837994E+02    0.20865E-01   -0.25727E-02  8435   0.516E-01    0.454E-01
RMM:   5    -0.938355031418E+02   -0.14193E-02   -0.62953E-03  8534   0.213E-01    0.373E-01
RMM:   6    -0.938352151904E+02    0.28795E-03   -0.17056E-03  8381   0.112E-01    0.221E-01
RMM:   7    -0.938354906087E+02   -0.27542E-03   -0.15417E-03  7546   0.910E-02    0.946E-02
RMM:   8    -0.938354916160E+02   -0.10073E-05   -0.41535E-04  6718   0.486E-02    0.394E-02
RMM:   9    -0.938355045727E+02   -0.12957E-04   -0.24632E-04  6029   0.317E-02    0.156E-02
RMM:  10    -0.938355170613E+02   -0.12489E-04   -0.11812E-04  5369   0.215E-02    0.108E-02
RMM:  11    -0.938355273582E+02   -0.10297E-04   -0.65301E-05  5056   0.150E-02    0.541E-03
RMM:  12    -0.938355364691E+02   -0.91109E-05   -0.39453E-05  4602   0.118E-02
  33 F= -.97036921E+02 E0= -.97033481E+02  d E =-.740281E-01
       N       E                     dE             d eps       ncg     rms          rms(c)
DAV:   1    -0.935985205923E+02    0.23701E+00   -0.10363E+02  5448   0.267E+01    0.292E+00
RMM:   2    -0.938517036986E+02   -0.25318E+00   -0.26334E+00  6178   0.587E+00    0.164E+00
RMM:   3    -0.940266816204E+02   -0.17498E+00   -0.10065E+00  7915   0.317E+00    0.231E+00
RMM:   4    -0.939271514935E+02    0.99530E-01   -0.13556E-01  8422   0.118E+00    0.118E+00
RMM:   5    -0.939284321764E+02   -0.12807E-02   -0.34921E-02  8570   0.484E-01    0.998E-01
RMM:   6    -0.939271750492E+02    0.12571E-02   -0.84930E-03  8737   0.254E-01    0.654E-01
RMM:   7    -0.939285205607E+02   -0.13455E-02   -0.81864E-03  8469   0.208E-01    0.353E-01
RMM:   8    -0.939283506271E+02    0.16993E-03   -0.22721E-03  6996   0.130E-01    0.227E-01
RMM:   9    -0.939282190608E+02    0.13157E-03   -0.13303E-03  7315   0.856E-02    0.600E-02
RMM:  10    -0.939282720947E+02   -0.53034E-04   -0.65178E-04  7638   0.496E-02    0.363E-02
RMM:  11    -0.939283162383E+02   -0.44144E-04   -0.30531E-04  6368   0.337E-02    0.308E-02
RMM:  12    -0.939283373227E+02   -0.21084E-04   -0.18989E-04  5951   0.230E-02    0.613E-03
RMM:  13    -0.939283614036E+02   -0.24081E-04   -0.11692E-04  5415   0.171E-02    0.449E-03
RMM:  14    -0.939283882381E+02   -0.26834E-04   -0.71102E-05  5046   0.133E-02    0.334E-03
RMM:  15    -0.939284076229E+02   -0.19385E-04   -0.47580E-05  4557   0.109E-02    0.392E-03
RMM:  16    -0.939284215469E+02   -0.13924E-04   -0.32064E-05  4153   0.894E-03    0.169E-03
RMM:  17    -0.939284349060E+02   -0.13359E-04   -0.23568E-05  3643   0.743E-03    0.234E-03
RMM:  18    -0.939284412719E+02   -0.63658E-05   -0.16408E-05  3240   0.648E-03
  34 F= -.97125684E+02 E0= -.97123320E+02  d E =-.162791E+00
       N       E                     dE             d eps       ncg     rms          rms(c)
DAV:   1    -0.939027444990E+02    0.25690E-01   -0.11636E+01  5656   0.876E+00    0.860E-01
RMM:   2    -0.939296133113E+02   -0.26869E-01   -0.26214E-01  6158   0.185E+00    0.645E-01
RMM:   3    -0.939414252659E+02   -0.11812E-01   -0.89411E-02  8103   0.994E-01    0.709E-01
RMM:   4    -0.939341409215E+02    0.72843E-02   -0.13184E-02  8464   0.362E-01    0.319E-01
RMM:   5    -0.939343011384E+02   -0.16022E-03   -0.27929E-03  8544   0.146E-01    0.256E-01
RMM:   6    -0.939342722901E+02    0.28848E-04   -0.88891E-04  8037   0.796E-02    0.140E-01
RMM:   7    -0.939343919385E+02   -0.11965E-03   -0.71987E-04  6834   0.609E-02    0.512E-02
RMM:   8    -0.939344014033E+02   -0.94648E-05   -0.19958E-04  6010   0.322E-02    0.244E-02
RMM:   9    -0.939344079743E+02   -0.65711E-05   -0.12182E-04  5470   0.222E-02    0.919E-03
RMM:  10    -0.939344151212E+02   -0.71468E-05   -0.59424E-05  4902   0.146E-02
  35 F= -.97130412E+02 E0= -.97128321E+02  d E =-.167519E+00
       N       E                     dE             d eps       ncg     rms          rms(c)
DAV:   1    -0.938929840893E+02    0.41424E-01   -0.33896E+01  5504   0.151E+01    0.152E+00
RMM:   2    -0.939682498459E+02   -0.75266E-01   -0.81926E-01  6250   0.332E+00    0.820E-01
[...]
RMM:   2    -0.947961079472E+02   -0.58166E-03   -0.70541E-03  6018   0.214E-01    0.681E-02
RMM:   3    -0.947962217394E+02   -0.11379E-03   -0.13551E-03  7493   0.109E-01    0.506E-02
RMM:   4    -0.947962483185E+02   -0.26579E-04   -0.27075E-04  6170   0.439E-02    0.422E-02
RMM:   5    -0.947962670414E+02   -0.18723E-04   -0.58585E-05  5112   0.209E-02    0.288E-02
RMM:   6    -0.947962747443E+02   -0.77029E-05   -0.33931E-05  4789   0.134E-02
 177 F= -.97873703E+02 E0= -.97872931E+02  d E =-.496099E-03
       N       E                     dE             d eps       ncg     rms          rms(c)
DAV:   1    -0.947921256644E+02    0.41414E-02   -0.17799E+00  5440   0.293E+00    0.414E-01
RMM:   2    -0.947960044143E+02   -0.38787E-02   -0.46742E-02  6145   0.549E-01    0.175E-01
RMM:   3    -0.947967683724E+02   -0.76396E-03   -0.91748E-03  7777   0.279E-01    0.134E-01
RMM:   4    -0.947969310545E+02   -0.16268E-03   -0.15256E-03  7519   0.105E-01    0.118E-01
RMM:   5    -0.947969861716E+02   -0.55117E-04   -0.31768E-04  6353   0.467E-02    0.998E-02
RMM:   6    -0.947969736468E+02    0.12525E-04   -0.17232E-04  5431   0.304E-02    0.412E-02
RMM:   7    -0.947969848815E+02   -0.11235E-04   -0.73864E-05  5312   0.215E-02    0.252E-02
RMM:   8    -0.947969846395E+02    0.24200E-06   -0.31169E-05  4499   0.126E-02
 178 F= -.97874177E+02 E0= -.97873350E+02  d E =-.970229E-03
       N       E                     dE             d eps       ncg     rms          rms(c)
DAV:   1    -0.947964511129E+02    0.53377E-03   -0.44630E-01  5488   0.144E+00    0.196E-01
RMM:   2    -0.947973729086E+02   -0.92180E-03   -0.11267E-02  6021   0.265E-01    0.856E-02
RMM:   3    -0.947975369683E+02   -0.16406E-03   -0.20537E-03  7510   0.133E-01    0.651E-02
RMM:   4    -0.947975859911E+02   -0.49023E-04   -0.35770E-04  6514   0.514E-02    0.561E-02
RMM:   5    -0.947975987884E+02   -0.12797E-04   -0.72657E-05  5384   0.246E-02    0.475E-02
RMM:   6    -0.947976022853E+02   -0.34969E-05   -0.47783E-05  4914   0.161E-02
 179 F= -.97874749E+02 E0= -.97873901E+02  d E =-.571764E-03
       N       E                     dE             d eps       ncg     rms          rms(c)
DAV:   1    -0.947889855078E+02    0.86133E-02   -0.40001E+00  5440   0.431E+00    0.620E-01
RMM:   2    -0.947972304774E+02   -0.82450E-02   -0.10176E-01  6145   0.795E-01    0.259E-01
RMM:   3    -0.947987512958E+02   -0.15208E-02   -0.18776E-02  7833   0.399E-01    0.198E-01
RMM:   4    -0.947992282424E+02   -0.47695E-03   -0.30215E-03  7898   0.150E-01    0.184E-01
RMM:   5    -0.947990486195E+02    0.17962E-03   -0.60176E-04  7032   0.657E-02    0.143E-01
RMM:   6    -0.947991518055E+02   -0.10319E-03   -0.41974E-04  5701   0.440E-02    0.493E-02
RMM:   7    -0.947991527387E+02   -0.93320E-06   -0.15062E-04  5385   0.269E-02    0.318E-02
RMM:   8    -0.947991526674E+02    0.71293E-07   -0.48478E-05  4910   0.159E-02
 180 F= -.97876161E+02 E0= -.97875254E+02  d E =-.198425E-02
       N       E                     dE             d eps       ncg     rms          rms(c)
DAV:   1    -0.947586832207E+02    0.40470E-01   -0.15981E+01  5440   0.862E+00    0.130E+00
RMM:   2    -0.947933083680E+02   -0.34625E-01   -0.41828E-01  6132   0.161E+00    0.517E-01
RMM:   3    -0.947999435327E+02   -0.66352E-02   -0.79529E-02  7996   0.819E-01    0.436E-01
RMM:   4    -0.948016443150E+02   -0.17008E-02   -0.12510E-02  8065   0.304E-01    0.419E-01
RMM:   5    -0.948004805070E+02    0.11638E-02   -0.24554E-03  7603   0.134E-01    0.318E-01
RMM:   6    -0.948009410577E+02   -0.46055E-03   -0.25114E-03  7268   0.967E-02    0.109E-01
RMM:   7    -0.948009328440E+02    0.82136E-05   -0.55398E-04  5819   0.489E-02    0.840E-02
RMM:   8    -0.948009162493E+02    0.16595E-04   -0.19855E-04  5463   0.301E-02    0.410E-02
RMM:   9    -0.948009298680E+02   -0.13619E-04   -0.23311E-04  5459   0.267E-02    0.242E-02
RMM:  10    -0.948009325506E+02   -0.26826E-05   -0.43860E-05  4716   0.143E-02
 181 F= -.97877659E+02 E0= -.97876628E+02  d E =-.348209E-02
       N       E                     dE             d eps       ncg     rms          rms(c)
DAV:   1    -0.947999916522E+02    0.93822E-03   -0.94425E-01  5592   0.207E+00    0.290E-01
RMM:   2    -0.948017751041E+02   -0.17835E-02   -0.23121E-02  6020   0.375E-01    0.123E-01
RMM:   3    -0.948021908923E+02   -0.41579E-03   -0.43498E-03  7601   0.189E-01    0.101E-01
RMM:   4    -0.948022642187E+02   -0.73326E-04   -0.71492E-04  7071   0.726E-02    0.938E-02
RMM:   5    -0.948022001488E+02    0.64070E-04   -0.15094E-04  5552   0.342E-02    0.659E-02
RMM:   6    -0.948022470661E+02   -0.46917E-04   -0.11940E-04  5137   0.243E-02    0.191E-02
RMM:   7    -0.948022479383E+02   -0.87215E-06   -0.35316E-05  4561   0.136E-02
 182 F= -.97878967E+02 E0= -.97877898E+02  d E =-.130803E-02
       N       E                     dE             d eps       ncg     rms          rms(c)
DAV:   1    -0.947844498139E+02    0.17797E-01   -0.84620E+00  5440   0.620E+00    0.911E-01
RMM:   2    -0.948013403658E+02   -0.16891E-01   -0.21446E-01  6110   0.113E+00    0.369E-01
RMM:   3    -0.948052680003E+02   -0.39276E-02   -0.41617E-02  7890   0.577E-01    0.324E-01
RMM:   4    -0.948056313793E+02   -0.36338E-03   -0.60470E-03  7887   0.212E-01    0.303E-01
RMM:   5    -0.948050367744E+02    0.59460E-03   -0.12264E-03  7362   0.947E-02    0.221E-01
RMM:   6    -0.948053880447E+02   -0.35127E-03   -0.12743E-03  6326   0.707E-02    0.703E-02
RMM:   7    -0.948053787818E+02    0.92629E-05   -0.22982E-04  5401   0.334E-02    0.445E-02
RMM:   8    -0.948053772827E+02    0.14992E-05   -0.10782E-04  5204   0.211E-02    0.169E-02
RMM:   9    -0.948053845380E+02   -0.72554E-05   -0.70402E-05  4899   0.161E-02
 183 F= -.97882072E+02 E0= -.97880898E+02  d E =-.441282E-02
       N       E                     dE             d eps       ncg     rms          rms(c)
DAV:   1    -0.947190410704E+02    0.86336E-01   -0.33511E+01  5440   0.124E+01    0.203E+00
RMM:   2    -0.947916545452E+02   -0.72613E-01   -0.91161E-01  6107   0.231E+00    0.741E-01
RMM:   3    -0.948094826846E+02   -0.17828E-01   -0.18193E-01  8059   0.119E+00    0.753E-01
RMM:   4    -0.948091936824E+02    0.28900E-03   -0.25783E-02  7956   0.434E-01    0.700E-01
RMM:   5    -0.948069422311E+02    0.22515E-02   -0.52349E-03  7788   0.193E-01    0.532E-01
RMM:   6    -0.948082348930E+02   -0.12927E-02   -0.91256E-03  7701   0.162E-01    0.243E-01
RMM:   7    -0.948079460441E+02    0.28885E-03   -0.10739E-03  6387   0.742E-02    0.148E-01
RMM:   8    -0.948079032105E+02    0.42834E-04   -0.78040E-04  5706   0.502E-02    0.521E-02
RMM:   9    -0.948079169362E+02   -0.13726E-04   -0.30297E-04  5530   0.349E-02    0.219E-02
RMM:  10    -0.948079263020E+02   -0.93658E-05   -0.92934E-05  5108   0.203E-02
 184 F= -.97884471E+02 E0= -.97883081E+02  d E =-.681152E-02
       N       E                     dE             d eps       ncg     rms          rms(c)
DAV:   1    -0.948022649986E+02    0.56519E-02   -0.23490E+00  5504   0.328E+00    0.442E-01
RMM:   2    -0.948066825290E+02   -0.44175E-02   -0.56632E-02  6062   0.591E-01    0.192E-01
RMM:   3    -0.948076231706E+02   -0.94064E-03   -0.10939E-02  7531   0.298E-01    0.152E-01
RMM:   4    -0.948078622774E+02   -0.23911E-03   -0.15828E-03  7619   0.109E-01    0.141E-01
RMM:   5    -0.948077009290E+02    0.16135E-03   -0.33924E-04  6287   0.485E-02    0.100E-01
RMM:   6    -0.948077875167E+02   -0.86588E-04   -0.22094E-04  5312   0.333E-02    0.303E-02
RMM:   7    -0.948077794199E+02    0.80968E-05   -0.61180E-05  5004   0.188E-02
 185 F= -.97884376E+02 E0= -.97883044E+02  d E =-.671670E-02
       N       E                     dE             d eps       ncg     rms          rms(c)
DAV:   1    -0.948064386621E+02    0.13489E-02   -0.64480E-01  5576   0.172E+00    0.231E-01
RMM:   2    -0.948076105692E+02   -0.11719E-02   -0.15236E-02  5882   0.306E-01    0.993E-02
RMM:   3    -0.948078948803E+02   -0.28431E-03   -0.30532E-03  7430   0.156E-01    0.836E-02
RMM:   4    -0.948079365892E+02   -0.41709E-04   -0.40171E-04  6627   0.558E-02    0.778E-02
RMM:   5    -0.948078963607E+02    0.40229E-04   -0.84141E-05  5324   0.264E-02    0.549E-02
RMM:   6    -0.948079255209E+02   -0.29160E-04   -0.71097E-05  4848   0.193E-02    0.155E-02
RMM:   7    -0.948079250647E+02    0.45623E-06   -0.17677E-05  4112   0.106E-02
 186 F= -.97884496E+02 E0= -.97883131E+02  d E =-.683662E-02
       N       E                     dE             d eps       ncg     rms          rms(c)
DAV:   1    -0.948025244818E+02    0.54010E-02   -0.28666E+00  5440   0.361E+00    0.512E-01
RMM:   2    -0.948081052899E+02   -0.55808E-02   -0.69531E-02  6045   0.656E-01    0.212E-01
RMM:   3    -0.948093641843E+02   -0.12589E-02   -0.14039E-02  7656   0.334E-01    0.179E-01
RMM:   4    -0.948096279844E+02   -0.26380E-03   -0.19604E-03  7689   0.120E-01    0.169E-01
RMM:   5    -0.948094640133E+02    0.16397E-03   -0.41999E-04  6473   0.535E-02    0.129E-01
RMM:   6    -0.948095778637E+02   -0.11385E-03   -0.36088E-04  5453   0.392E-02    0.420E-02
RMM:   7    -0.948095723510E+02    0.55127E-05   -0.81460E-05  5128   0.216E-02
 187 F= -.97886173E+02 E0= -.97884728E+02  d E =-.167659E-02
       N       E                     dE             d eps       ncg     rms          rms(c)
DAV:   1    -0.948066775257E+02    0.29003E-02   -0.14768E+00  5488   0.260E+00    0.372E-01
RMM:   2    -0.948095819150E+02   -0.29044E-02   -0.36426E-02  6024   0.475E-01    0.154E-01
RMM:   3    -0.948102491257E+02   -0.66721E-03   -0.73000E-03  7578   0.242E-01    0.125E-01
RMM:   4    -0.948103995260E+02   -0.15040E-03   -0.10963E-03  7301   0.897E-02    0.119E-01
RMM:   5    -0.948103047765E+02    0.94750E-04   -0.24083E-04  5780   0.411E-02    0.888E-02
RMM:   6    -0.948103688779E+02   -0.64101E-04   -0.18504E-04  5272   0.291E-02    0.287E-02
RMM:   7    -0.948103691552E+02   -0.27729E-06   -0.48543E-05  4884   0.167E-02
 188 F= -.97886980E+02 E0= -.97885481E+02  d E =-.248386E-02
       N       E                     dE             d eps       ncg     rms          rms(c)
DAV:   1    -0.947960636804E+02    0.14305E-01   -0.58797E+00  5440   0.520E+00    0.753E-01
RMM:   2    -0.948078970723E+02   -0.11833E-01   -0.14684E-01  6088   0.954E-01    0.305E-01
RMM:   3    -0.948105631720E+02   -0.26661E-02   -0.29948E-02  7733   0.488E-01    0.263E-01
RMM:   4    -0.948110753217E+02   -0.51215E-03   -0.43720E-03  7854   0.179E-01    0.252E-01
RMM:   5    -0.948107128606E+02    0.36246E-03   -0.92026E-04  7079   0.790E-02    0.195E-01
RMM:   6    -0.948109521738E+02   -0.23931E-03   -0.84248E-04  5984   0.582E-02    0.656E-02
RMM:   7    -0.948109459138E+02    0.62599E-05   -0.17762E-04  5302   0.301E-02    0.514E-02
RMM:   8    -0.948109424722E+02    0.34416E-05   -0.77959E-05  5036   0.185E-02
 189 F= -.97887541E+02 E0= -.97885937E+02  d E =-.304486E-02
       N       E                     dE             d eps       ncg     rms          rms(c)
DAV:   1    -0.948094016016E+02    0.15443E-02   -0.64717E-01  5536   0.173E+00    0.237E-01
RMM:   2    -0.948105949701E+02   -0.11934E-02   -0.15237E-02  5940   0.311E-01    0.101E-01
RMM:   3    -0.948108443415E+02   -0.24937E-03   -0.30156E-03  7345   0.157E-01    0.723E-02
RMM:   4    -0.948109064927E+02   -0.62151E-04   -0.39907E-04  6515   0.545E-02    0.619E-02
RMM:   5    -0.948109192901E+02   -0.12797E-04   -0.82178E-05  5363   0.250E-02    0.531E-02
RMM:   6    -0.948109220042E+02   -0.27141E-05   -0.48758E-05  4710   0.167E-02
 190 F= -.97887530E+02 E0= -.97885961E+02  d E =-.303396E-02
       N       E                     dE             d eps       ncg     rms          rms(c)
DAV:   1    -0.948106206640E+02    0.29863E-03   -0.14097E-01  5744   0.808E-01    0.104E-01
RMM:   2    -0.948108820415E+02   -0.26138E-03   -0.32412E-03  5821   0.145E-01    0.454E-02
RMM:   3    -0.948109445451E+02   -0.62504E-04   -0.69310E-04  6834   0.749E-02    0.373E-02
RMM:   4    -0.948109589499E+02   -0.14405E-04   -0.98398E-05  5474   0.281E-02    0.344E-02
RMM:   5    -0.948109564543E+02    0.24956E-05   -0.22587E-05  4455   0.144E-02
 191 F= -.97887561E+02 E0= -.97885978E+02  d E =-.306469E-02
       N       E                     dE             d eps       ncg     rms          rms(c)
DAV:   1    -0.948081291422E+02    0.28298E-02   -0.19233E+00  5440   0.298E+00    0.424E-01
RMM:   2    -0.948118899648E+02   -0.37608E-02   -0.46624E-02  6049   0.542E-01    0.182E-01
RMM:   3    -0.948126319713E+02   -0.74201E-03   -0.91761E-03  7530   0.274E-01    0.138E-01
RMM:   4    -0.948128488812E+02   -0.21691E-03   -0.12925E-03  7380   0.978E-02    0.126E-01
RMM:   5    -0.948127897886E+02    0.59093E-04   -0.29057E-04  5975   0.444E-02    0.101E-01
RMM:   6    -0.948128354786E+02   -0.45690E-04   -0.19337E-04  5328   0.307E-02    0.317E-02
RMM:   7    -0.948128323862E+02    0.30924E-05   -0.64014E-05  5081   0.183E-02
 192 F= -.97889490E+02 E0= -.97887842E+02  d E =-.192977E-02
       N       E                     dE             d eps       ncg     rms          rms(c)
DAV:   1    -0.947718914230E+02    0.40944E-01   -0.17234E+01  5440   0.893E+00    0.137E+00
RMM:   2    -0.948085372078E+02   -0.36646E-01   -0.44185E-01  6081   0.165E+00    0.543E-01
RMM:   3    -0.948165938921E+02   -0.80567E-02   -0.90293E-02  7881   0.850E-01    0.483E-01
RMM:   4    -0.948176369656E+02   -0.10431E-02   -0.12765E-02  7962   0.310E-01    0.465E-01
RMM:   5    -0.948162331976E+02    0.14038E-02   -0.27319E-03  7416   0.136E-01    0.351E-01
RMM:   6    -0.948168697287E+02   -0.63653E-03   -0.34154E-03  7233   0.107E-01    0.146E-01
RMM:   7    -0.948167996029E+02    0.70126E-04   -0.51318E-04  5551   0.489E-02    0.961E-02
RMM:   8    -0.948167813081E+02    0.18295E-04   -0.30031E-04  5485   0.326E-02    0.371E-02
RMM:   9    -0.948167962770E+02   -0.14969E-04   -0.18421E-04  5355   0.254E-02    0.228E-02
RMM:  10    -0.948167996864E+02   -0.34093E-05   -0.44738E-05  4713   0.152E-02
 193 F= -.97893495E+02 E0= -.97891672E+02  d E =-.593467E-02
       N       E                     dE             d eps       ncg     rms          rms(c)
DAV:   1    -0.946164768146E+02    0.20032E+00   -0.68020E+01  5440   0.178E+01    0.328E+00
RMM:   2    -0.947817777921E+02   -0.16530E+00   -0.19726E+00  6136   0.345E+00    0.110E+00
RMM:   3    -0.948191127323E+02   -0.37335E-01   -0.41436E-01  8025   0.180E+00    0.120E+00
RMM:   4    -0.948216253194E+02   -0.25126E-02   -0.59516E-02  7983   0.660E-01    0.116E+00
RMM:   5    -0.948158870829E+02    0.57382E-02   -0.12817E-02  7602   0.289E-01    0.905E-01
RMM:   6    -0.948186155849E+02   -0.27285E-02   -0.27595E-02  7647   0.263E-01    0.535E-01
RMM:   7    -0.948173785951E+02    0.12370E-02   -0.28528E-03  6732   0.124E-01    0.342E-01
RMM:   8    -0.948171125379E+02    0.26606E-03   -0.33876E-03  6729   0.926E-02    0.676E-02
RMM:   9    -0.948171536849E+02   -0.41147E-04   -0.48410E-04  5729   0.456E-02    0.249E-02
RMM:  10    -0.948171758033E+02   -0.22118E-04   -0.18459E-04  5290   0.279E-02    0.127E-02
RMM:  11    -0.948172040979E+02   -0.28295E-04   -0.15244E-04  5065   0.196E-02    0.221E-02
RMM:  12    -0.948172174833E+02   -0.13385E-04   -0.59824E-05  4819   0.135E-02    0.877E-03
RMM:  13    -0.948172274546E+02   -0.99713E-05   -0.47168E-05  4427   0.101E-02
 194 F= -.97893308E+02 E0= -.97891170E+02  d E =-.574744E-02
       N       E                     dE             d eps       ncg     rms          rms(c)
DAV:   1    -0.947553217801E+02    0.61896E-01   -0.24781E+01  5440   0.107E+01    0.151E+00
RMM:   2    -0.948063346159E+02   -0.51013E-01   -0.61255E-01  6088   0.199E+00    0.638E-01
RMM:   3    -0.948159685420E+02   -0.96339E-02   -0.12765E-01  7708   0.102E+00    0.495E-01
RMM:   4    -0.948182019623E+02   -0.22334E-02   -0.18273E-02  8133   0.365E-01    0.427E-01
RMM:   5    -0.948185241479E+02   -0.32219E-03   -0.43198E-03  7464   0.162E-01    0.364E-01
RMM:   6    -0.948184157480E+02    0.10840E-03   -0.31911E-03  7086   0.112E-01    0.134E-01
RMM:   7    -0.948181829695E+02    0.23278E-03   -0.83901E-04  6454   0.659E-02    0.715E-02
RMM:   8    -0.948181926611E+02   -0.96916E-05   -0.38145E-04  5501   0.386E-02    0.289E-02
RMM:   9    -0.948182127412E+02   -0.20080E-04   -0.20129E-04  5390   0.278E-02    0.151E-02
RMM:  10    -0.948182232632E+02   -0.10522E-04   -0.79105E-05  4786   0.169E-02    0.953E-03
RMM:  11    -0.948182309861E+02   -0.77229E-05   -0.51796E-05  4294   0.121E-02
 195 F= -.97894794E+02 E0= -.97892836E+02  d E =-.723377E-02
       N       E                     dE             d eps       ncg     rms          rms(c)
DAV:   1    -0.948076928751E+02    0.10530E-01   -0.54555E+00  5440   0.503E+00    0.725E-01
RMM:   2    -0.948187528910E+02   -0.11060E-01   -0.14200E-01  6032   0.909E-01    0.318E-01
RMM:   3    -0.948217185632E+02   -0.29657E-02   -0.27943E-02  7826   0.464E-01    0.292E-01
RMM:   4    -0.948210249324E+02    0.69363E-03   -0.37310E-03  7766   0.170E-01    0.238E-01
RMM:   5    -0.948207111304E+02    0.31380E-03   -0.86723E-04  7157   0.780E-02    0.161E-01
RMM:   6    -0.948209167693E+02   -0.20564E-03   -0.82411E-04  5968   0.583E-02    0.373E-02
RMM:   7    -0.948209094534E+02    0.73160E-05   -0.12900E-04  5352   0.275E-02    0.215E-02
RMM:   8    -0.948209121000E+02   -0.26467E-05   -0.73329E-05  5070   0.176E-02
 196 F= -.97897372E+02 E0= -.97895339E+02  d E =-.257797E-02
       N       E                     dE             d eps       ncg     rms          rms(c)
DAV:   1    -0.948209007961E+02    0.86573E-05   -0.32869E-03  5928   0.124E-01    0.227E-02
RMM:   2    -0.948209053595E+02   -0.45634E-05   -0.78686E-05  4396   0.225E-02
 197 F= -.97897369E+02 E0= -.97895336E+02  d E =-.257475E-02
       N       E                     dE             d eps       ncg     rms          rms(c)
DAV:   1    -0.948209130472E+02   -0.12251E-04   -0.24031E-03  6232   0.115E-01    0.175E-02
RMM:   2    -0.948209310254E+02   -0.17978E-04   -0.81783E-05  4790   0.243E-02    0.179E-02
RMM:   3    -0.948209202423E+02    0.10783E-04   -0.18902E-05  4020   0.122E-02    0.744E-03
RMM:   4    -0.948209197159E+02    0.52639E-06   -0.60572E-06  2888   0.721E-03
 198 F= -.97897381E+02 E0= -.97895347E+02  d E =-.258612E-02
       N       E                     dE             d eps       ncg     rms          rms(c)
DAV:   1    -0.948177412004E+02    0.31790E-02   -0.22810E+00  5440   0.330E+00    0.453E-01
RMM:   2    -0.948222547391E+02   -0.45135E-02   -0.56174E-02  6040   0.604E-01    0.192E-01
RMM:   3    -0.948235164386E+02   -0.12617E-02   -0.12118E-02  7761   0.312E-01    0.178E-01
RMM:   4    -0.948234424392E+02    0.73999E-04   -0.16578E-03  7799   0.114E-01    0.158E-01
RMM:   5    -0.948233329138E+02    0.10953E-03   -0.39174E-04  6500   0.507E-02    0.115E-01
RMM:   6    -0.948234213074E+02   -0.88394E-04   -0.34941E-04  5448   0.386E-02    0.388E-02
RMM:   7    -0.948234154311E+02    0.58763E-05   -0.71983E-05  5093   0.199E-02
 199 F= -.97899979E+02 E0= -.97897881E+02  d E =-.259851E-02
       N       E                     dE             d eps       ncg     rms          rms(c)
DAV:   1    -0.948207497840E+02    0.26715E-02   -0.15695E+00  5440   0.274E+00    0.379E-01
RMM:   2    -0.948239280347E+02   -0.31783E-02   -0.39520E-02  6067   0.507E-01    0.160E-01
RMM:   3    -0.948248102437E+02   -0.88221E-03   -0.83354E-03  7713   0.261E-01    0.146E-01
RMM:   4    -0.948247637902E+02    0.46454E-04   -0.12338E-03  7699   0.984E-02    0.129E-01
RMM:   5    -0.948246873340E+02    0.76456E-04   -0.30394E-04  6058   0.445E-02    0.935E-02
RMM:   6    -0.948247536493E+02   -0.66315E-04   -0.24826E-04  5444   0.330E-02    0.312E-02
RMM:   7    -0.948247512345E+02    0.24148E-05   -0.59823E-05  5027   0.177E-02
 200 F= -.97901383E+02 E0= -.97899233E+02  d E =-.400200E-02
