       N       E                     dE             d eps       ncg     rms          rms(c)
DAV:   1     0.297613525983E+04    0.29761E+04   -0.89657E+04  6976   0.230E+03
DAV:   2     0.608985700541E+03   -0.23671E+04   -0.22659E+04  5648   0.760E+02
DAV:   3    -0.565210560570E+01   -0.61464E+03   -0.58566E+03  6584   0.271E+02
DAV:   4    -0.965017613229E+02   -0.90850E+02   -0.87702E+02  7752   0.106E+02
DAV:   5    -0.104395728224E+03   -0.78940E+01   -0.75291E+01  8248   0.299E+01    0.294E+01
DAV:   6    -0.111734478727E+03   -0.73388E+01   -0.12841E+02  8984   0.346E+01    0.371E+01
DAV:   7    -0.997662119707E+02    0.11968E+02   -0.14902E+02  7280   0.358E+01    0.205E+01
DAV:   8    -0.990778301083E+02    0.68838E+00   -0.29482E+01  7648   0.182E+01    0.188E+01
DAV:   9    -0.979606025451E+02    0.11172E+01   -0.18122E+01  7456   0.130E+01    0.116E+01
DAV:  10    -0.950464622809E+02    0.29141E+01   -0.10252E+01  7384   0.107E+01    0.423E+00
DAV:  11    -0.946019097985E+02    0.44455E+00   -0.21877E+00  7592   0.535E+00    0.236E+00
DAV:  12    -0.945495690189E+02    0.52341E-01   -0.36518E-01  7792   0.248E+00    0.153E+00
DAV:  13    -0.945438734649E+02    0.56956E-02   -0.10728E-01  8464   0.115E+00    0.100E+00
DAV:  14    -0.945402147088E+02    0.36588E-02   -0.40860E-02  7680   0.118E+00    0.470E-01
DAV:  15    -0.945371619319E+02    0.30528E-02   -0.87560E-03  7216   0.565E-01    0.308E-01
DAV:  16    -0.945373646840E+02   -0.20275E-03   -0.53181E-03  8112   0.282E-01    0.202E-01
DAV:  17    -0.945372148897E+02    0.14979E-03   -0.64859E-03  6888   0.274E-01    0.237E-01
DAV:  18    -0.945363491118E+02    0.86578E-03   -0.22297E-03  7424   0.152E-01    0.904E-02
DAV:  19    -0.945363805438E+02   -0.31432E-04   -0.63049E-04  6552   0.104E-01    0.990E-02
DAV:  20    -0.945364008895E+02   -0.20346E-04   -0.30943E-04  6088   0.643E-02    0.208E-02
DAV:  21    -0.945368602145E+02   -0.45933E-03   -0.31006E-04  5216   0.548E-02    0.321E-02
DAV:  22    -0.945370311076E+02   -0.17089E-03   -0.70705E-05  5800   0.429E-02    0.105E-02
DAV:  23    -0.945372596876E+02   -0.22858E-03   -0.34326E-05  5072   0.180E-02    0.108E-02
DAV:  24    -0.945374649555E+02   -0.20527E-03   -0.95849E-06  4680   0.195E-02    0.482E-03
DAV:  25    -0.945376686817E+02   -0.20373E-03   -0.90655E-06  4400   0.131E-02    0.375E-03
DAV:  26    -0.945377787988E+02   -0.11012E-03   -0.52918E-06  4152   0.114E-02    0.266E-03
DAV:  27    -0.945378384220E+02   -0.59623E-04   -0.41879E-06  4128   0.772E-03    0.212E-03
DAV:  28    -0.945378521087E+02   -0.13687E-04   -0.12214E-06  3704   0.519E-03    0.142E-03
DAV:  29    -0.945378562333E+02   -0.41247E-05   -0.78119E-07  3448   0.638E-03
   1 F= -.97597458E+02 E0= -.97595750E+02  d E =-.975975E+02
       N       E                     dE             d eps       ncg     rms          rms(c)
DAV:   1    -0.944988684917E+02    0.38984E-01   -0.61111E+00  5616   0.596E+00    0.925E-01
DAV:   2    -0.945296181921E+02   -0.30750E-01   -0.34872E-01  7440   0.164E+00    0.826E-01
DAV:   3    -0.945241581235E+02    0.54601E-02   -0.91273E-02  6984   0.159E+00    0.716E-01
DAV:   4    -0.945189605465E+02    0.51976E-02   -0.26135E-02  6624   0.584E-01    0.380E-01
DAV:   5    -0.945227112187E+02   -0.37507E-02   -0.24035E-02  8072   0.572E-01    0.584E-01
DAV:   6    -0.945184658117E+02    0.42454E-02   -0.19179E-02  7480   0.645E-01    0.184E-01
DAV:   7    -0.945177728932E+02    0.69292E-03   -0.27331E-03  7224   0.317E-01    0.676E-02
DAV:   8    -0.945178160138E+02   -0.43121E-04   -0.69804E-04  6752   0.114E-01    0.351E-02
DAV:   9    -0.945178317096E+02   -0.15696E-04   -0.12597E-04  6624   0.661E-02    0.238E-02
DAV:  10    -0.945178484519E+02   -0.16742E-04   -0.17209E-05  4736   0.257E-02    0.146E-02
DAV:  11    -0.945178750414E+02   -0.26590E-04   -0.80198E-06  4024   0.142E-02    0.652E-03
DAV:  12    -0.945178961698E+02   -0.21128E-04   -0.38437E-06  3920   0.129E-02    0.184E-03
DAV:  13    -0.945179109559E+02   -0.14786E-04   -0.29093E-06  3728   0.780E-03    0.149E-03
DAV:  14    -0.945179236468E+02   -0.12691E-04   -0.23693E-06  3960   0.833E-03    0.117E-03
DAV:  15    -0.945179397937E+02   -0.16147E-04   -0.48338E-06  4208   0.522E-03    0.792E-04
DAV:  16    -0.945179431133E+02   -0.33196E-05   -0.68892E-07  3552   0.368E-03
   2 F= -.97578371E+02 E0= -.97577094E+02  d E =0.190872E-01
       N       E                     dE             d eps       ncg     rms          rms(c)
DAV:   1    -0.945312511926E+02   -0.13311E-01   -0.31238E+00  5456   0.406E+00    0.624E-01
DAV:   2    -0.945461557217E+02   -0.14905E-01   -0.16789E-01  7216   0.118E+00    0.531E-01
DAV:   3    -0.945445567767E+02    0.15989E-02   -0.42271E-02  7160   0.104E+00    0.488E-01
DAV:   4    -0.945420251467E+02    0.25316E-02   -0.10083E-02  6488   0.433E-01    0.259E-01
DAV:   5    -0.945438043727E+02   -0.17792E-02   -0.77890E-03  7872   0.303E-01    0.415E-01
DAV:   6    -0.945423838508E+02    0.14205E-02   -0.10806E-02  7048   0.434E-01    0.188E-01
DAV:   7    -0.945416610964E+02    0.72275E-03   -0.23722E-03  7072   0.264E-01    0.554E-02
DAV:   8    -0.945416539834E+02    0.71130E-05   -0.36811E-04  6824   0.837E-02    0.253E-02
DAV:   9    -0.945416504403E+02    0.35430E-05   -0.61507E-05  6112   0.571E-02
   3 F= -.97601483E+02 E0= -.97599900E+02  d E =-.402518E-02
       N       E                     dE             d eps       ncg     rms          rms(c)
DAV:   1    -0.945408241370E+02    0.82985E-03   -0.79343E-01  5752   0.315E+00    0.307E-01
DAV:   2    -0.945455388063E+02   -0.47147E-02   -0.52548E-02  6728   0.709E-01    0.172E-01
DAV:   3    -0.945464603348E+02   -0.92153E-03   -0.58650E-03  8256   0.272E-01    0.279E-01
DAV:   4    -0.945456364906E+02    0.82384E-03   -0.34667E-03  6936   0.207E-01    0.101E-01
DAV:   5    -0.945456531960E+02   -0.16705E-04   -0.77561E-04  6624   0.145E-01    0.510E-02
DAV:   6    -0.945456225581E+02    0.30638E-04   -0.67010E-04  6520   0.138E-01    0.402E-02
DAV:   7    -0.945455879862E+02    0.34572E-04   -0.12489E-04  5672   0.684E-02    0.766E-03
DAV:   8    -0.945455911560E+02   -0.31698E-05   -0.17786E-05  4736   0.272E-02
   4 F= -.97605584E+02 E0= -.97604063E+02  d E =-.410050E-02
       N       E                     dE             d eps       ncg     rms          rms(c)
DAV:   1    -0.945381961197E+02    0.73919E-02   -0.15515E+00  5752   0.440E+00    0.436E-01
DAV:   2    -0.945474397525E+02   -0.92436E-02   -0.10313E-01  6696   0.996E-01    0.239E-01
DAV:   3    -0.945489695749E+02   -0.15298E-02   -0.10409E-02  7904   0.345E-01    0.362E-01
DAV:   4    -0.945477002705E+02    0.12693E-02   -0.63410E-03  6928   0.283E-01    0.153E-01
DAV:   5    -0.945476953303E+02    0.49403E-05   -0.17106E-03  6448   0.207E-01    0.742E-02
DAV:   6    -0.945476058008E+02    0.89529E-04   -0.13888E-03  6560   0.191E-01    0.553E-02
DAV:   7    -0.945475366365E+02    0.69164E-04   -0.24507E-04  5856   0.103E-01    0.111E-02
DAV:   8    -0.945475387846E+02   -0.21481E-05   -0.34504E-05  5336   0.337E-02
   5 F= -.97607775E+02 E0= -.97606348E+02  d E =-.629140E-02
       N       E                     dE             d eps       ncg     rms          rms(c)
DAV:   1    -0.945484317449E+02   -0.89511E-03   -0.73431E-02  5696   0.978E-01    0.711E-02
DAV:   2    -0.945489111319E+02   -0.47939E-03   -0.50931E-03  6568   0.228E-01    0.461E-02
DAV:   3    -0.945489457175E+02   -0.34586E-04   -0.45029E-04  7112   0.892E-02    0.590E-02
DAV:   4    -0.945489150371E+02    0.30680E-04   -0.16403E-04  5928   0.397E-02    0.283E-02
DAV:   5    -0.945489224029E+02   -0.73658E-05   -0.91872E-05  5128   0.450E-02
   6 F= -.97609203E+02 E0= -.97607788E+02  d E =-.142826E-02
       N       E                     dE             d eps       ncg     rms          rms(c)
DAV:   1    -0.945481566626E+02    0.75837E-03   -0.65961E-01  5784   0.293E+00    0.221E-01
DAV:   2    -0.945524818317E+02   -0.43252E-02   -0.45727E-02  6320   0.675E-01    0.150E-01
DAV:   3    -0.945528371239E+02   -0.35529E-03   -0.49081E-03  7456   0.299E-01    0.195E-01
DAV:   4    -0.945524635925E+02    0.37353E-03   -0.16939E-03  7208   0.131E-01    0.875E-02
DAV:   5    -0.945525236121E+02   -0.60020E-04   -0.94628E-04  6792   0.148E-01    0.716E-02
DAV:   6    -0.945524297141E+02    0.93898E-04   -0.56446E-04  6136   0.116E-01    0.279E-02
DAV:   7    -0.945524266345E+02    0.30795E-05   -0.72640E-05  5688   0.544E-02
   7 F= -.97612847E+02 E0= -.97611529E+02  d E =-.507245E-02
       N       E                     dE             d eps       ncg     rms          rms(c)
DAV:   1    -0.945396893552E+02    0.12740E-01   -0.26411E+00  5784   0.586E+00    0.436E-01
DAV:   2    -0.945571670887E+02   -0.17478E-01   -0.18374E-01  6496   0.131E+00    0.318E-01
DAV:   3    -0.945589590629E+02   -0.17920E-02   -0.20597E-02  7544   0.467E-01    0.445E-01
DAV:   4    -0.945569101787E+02    0.20489E-02   -0.77777E-03  7120   0.245E-01    0.162E-01
DAV:   5    -0.945570753543E+02   -0.16518E-03   -0.33979E-03  7424   0.311E-01    0.118E-01
DAV:   6    -0.945567949199E+02    0.28043E-03   -0.19948E-03  6352   0.228E-01    0.562E-02
DAV:   7    -0.945567753039E+02    0.19616E-04   -0.26495E-04  7008   0.875E-02    0.216E-02
DAV:   8    -0.945567695835E+02    0.57204E-05   -0.56514E-05  5680   0.440E-02
   8 F= -.97617497E+02 E0= -.97616358E+02  d E =-.972182E-02
       N       E                     dE             d eps       ncg     rms          rms(c)
DAV:   1    -0.944857613341E+02    0.71014E-01   -0.10570E+01  5784   0.117E+01    0.887E-01
DAV:   2    -0.945573744037E+02   -0.71613E-01   -0.74232E-01  6504   0.262E+00    0.714E-01
DAV:   3    -0.945652925520E+02   -0.79181E-02   -0.97430E-02  7896   0.949E-01    0.952E-01
DAV:   4    -0.945551623342E+02    0.10130E-01   -0.33746E-02  7008   0.577E-01    0.311E-01
DAV:   5    -0.945558094732E+02   -0.64714E-03   -0.14131E-02  7896   0.631E-01    0.231E-01
DAV:   6    -0.945546906509E+02    0.11188E-02   -0.74792E-03  6872   0.441E-01    0.106E-01
DAV:   7    -0.945546554461E+02    0.35205E-04   -0.10064E-03  7416   0.166E-01    0.443E-02
DAV:   8    -0.945546308087E+02    0.24637E-04   -0.22280E-04  6704   0.900E-02    0.201E-02
DAV:   9    -0.945546284092E+02    0.23995E-05   -0.60852E-05  5736   0.387E-02
   9 F= -.97616075E+02 E0= -.97615318E+02  d E =-.830012E-02
       N       E                     dE             d eps       ncg     rms          rms(c)
DAV:   1    -0.945327257840E+02    0.21905E-01   -0.38321E+00  5800   0.704E+00    0.533E-01
DAV:   2    -0.945577196189E+02   -0.24994E-01   -0.26728E-01  6368   0.162E+00    0.312E-01
DAV:   3    -0.945589560565E+02   -0.12364E-02   -0.22049E-02  7400   0.663E-01    0.352E-01
DAV:   4    -0.945577613809E+02    0.11947E-02   -0.74636E-03  6896   0.364E-01    0.196E-01
DAV:   5    -0.945583773284E+02   -0.61595E-03   -0.44562E-03  7704   0.256E-01    0.201E-01
DAV:   6    -0.945577372526E+02    0.64008E-03   -0.37739E-03  7408   0.308E-01    0.775E-02
DAV:   7    -0.945576874185E+02    0.49834E-04   -0.62548E-04  6736   0.137E-01    0.356E-02
DAV:   8    -0.945576698428E+02    0.17576E-04   -0.13849E-04  6736   0.643E-02    0.155E-02
DAV:   9    -0.945576689314E+02    0.91145E-06   -0.37894E-05  5880   0.287E-02
  10 F= -.97618665E+02 E0= -.97617670E+02  d E =-.108900E-01
       N       E                     dE             d eps       ncg     rms          rms(c)
DAV:   1    -0.945580372357E+02   -0.36739E-03   -0.20587E-01  5792   0.168E+00    0.104E-01
DAV:   2    -0.945594968248E+02   -0.14596E-02   -0.15645E-02  6480   0.392E-01    0.765E-02
DAV:   3    -0.945595683158E+02   -0.71491E-04   -0.15993E-03  7040   0.177E-01    0.864E-02
DAV:   4    -0.945594862358E+02    0.82080E-04   -0.34276E-04  6080   0.767E-02    0.408E-02
DAV:   5    -0.945594902949E+02   -0.40591E-05   -0.14188E-04  5976   0.506E-02    0.336E-02
DAV:   6    -0.945594842554E+02    0.60395E-05   -0.88845E-05  5256   0.521E-02
  11 F= -.97620586E+02 E0= -.97619647E+02  d E =-.192163E-02
       N       E                     dE             d eps       ncg     rms          rms(c)
DAV:   1    -0.945503165111E+02    0.91738E-02   -0.18559E+00  5808   0.503E+00    0.312E-01
DAV:   2    -0.945634348265E+02   -0.13118E-01   -0.14033E-01  6440   0.116E+00    0.241E-01
DAV:   3    -0.945641809007E+02   -0.74607E-03   -0.14589E-02  7264   0.498E-01    0.284E-01
DAV:   4    -0.945633753575E+02    0.80554E-03   -0.34438E-03  6656   0.203E-01    0.129E-01
DAV:   5    -0.945633510218E+02    0.24336E-04   -0.13239E-03  7176   0.164E-01    0.936E-02
DAV:   6    -0.945633287264E+02    0.22295E-04   -0.72307E-04  6648   0.137E-01    0.527E-02
DAV:   7    -0.945633197563E+02    0.89701E-05   -0.22658E-04  6720   0.990E-02    0.246E-02
DAV:   8    -0.945633137464E+02    0.60099E-05   -0.72036E-05  6568   0.449E-02
  12 F= -.97624750E+02 E0= -.97623969E+02  d E =-.608501E-02
       N       E                     dE             d eps       ncg     rms          rms(c)
DAV:   1    -0.945115152427E+02    0.51805E-01   -0.74376E+00  5808   0.101E+01    0.620E-01
DAV:   2    -0.945648088878E+02   -0.53294E-01   -0.56354E-01  6544   0.229E+00    0.538E-01
DAV:   3    -0.945676804303E+02   -0.28715E-02   -0.63215E-02  7408   0.948E-01    0.608E-01
DAV:   4    -0.945640529897E+02    0.36274E-02   -0.15304E-02  6880   0.376E-01    0.259E-01
DAV:   5    -0.945636963878E+02    0.35660E-03   -0.53648E-03  8248   0.350E-01    0.175E-01
DAV:   6    -0.945636773908E+02    0.18997E-04   -0.22468E-03  7224   0.233E-01    0.102E-01
DAV:   7    -0.945636658268E+02    0.11564E-04   -0.77167E-04  7232   0.167E-01    0.471E-02
DAV:   8    -0.945636431139E+02    0.22713E-04   -0.23568E-04  6984   0.784E-02    0.203E-02
DAV:   9    -0.945636368909E+02    0.62229E-05   -0.39528E-05  5472   0.346E-02
  13 F= -.97625809E+02 E0= -.97625360E+02  d E =-.714433E-02
       N       E                     dE             d eps       ncg     rms          rms(c)
DAV:   1    -0.945562441882E+02    0.73989E-02   -0.12025E+00  5800   0.405E+00    0.250E-01
DAV:   2    -0.945646997299E+02   -0.84555E-02   -0.91111E-02  6376   0.952E-01    0.164E-01
DAV:   3    -0.945651041975E+02   -0.40447E-03   -0.91882E-03  7176   0.455E-01    0.173E-01
DAV:   4    -0.945646732257E+02    0.43097E-03   -0.18534E-03  6640   0.221E-01    0.847E-02
DAV:   5    -0.945648018552E+02   -0.12863E-03   -0.75702E-04  8568   0.936E-02    0.994E-02
DAV:   6    -0.945647314351E+02    0.70420E-04   -0.72490E-04  6408   0.128E-01    0.521E-02
DAV:   7    -0.945647038522E+02    0.27583E-04   -0.19423E-04  6392   0.781E-02    0.206E-02
DAV:   8    -0.945647005373E+02    0.33149E-05   -0.42167E-05  5880   0.309E-02
  14 F= -.97626565E+02 E0= -.97625972E+02  d E =-.790055E-02
       N       E                     dE             d eps       ncg     rms          rms(c)
DAV:   1    -0.945610622443E+02    0.36416E-02   -0.10526E+00  5712   0.364E+00    0.255E-01
DAV:   2    -0.945674719129E+02   -0.64097E-02   -0.71478E-02  6568   0.839E-01    0.127E-01
DAV:   3    -0.945676604975E+02   -0.18858E-03   -0.40412E-03  7784   0.240E-01    0.918E-02
DAV:   4    -0.945677247855E+02   -0.64288E-04   -0.74894E-04  7368   0.138E-01    0.674E-02
DAV:   5    -0.945677074429E+02    0.17343E-04   -0.67165E-04  6256   0.146E-01    0.493E-02
DAV:   6    -0.945677360084E+02   -0.28566E-04   -0.44429E-04  6192   0.765E-02    0.738E-02
DAV:   7    -0.945676719246E+02    0.64084E-04   -0.23369E-04  5632   0.449E-02    0.210E-02
DAV:   8    -0.945676674585E+02    0.44660E-05   -0.29207E-05  4672   0.279E-02
  15 F= -.97629651E+02 E0= -.97629097E+02  d E =-.308561E-02
       N       E                     dE             d eps       ncg     rms          rms(c)
DAV:   1    -0.945547252249E+02    0.12947E-01   -0.22941E+00  5720   0.537E+00    0.378E-01
DAV:   2    -0.945687204500E+02   -0.13995E-01   -0.15609E-01  6552   0.124E+00    0.188E-01
DAV:   3    -0.945691554489E+02   -0.43500E-03   -0.88158E-03  7896   0.359E-01    0.140E-01
DAV:   4    -0.945696342974E+02   -0.47885E-03   -0.27810E-03  7400   0.234E-01    0.195E-01
DAV:   5    -0.945691700777E+02    0.46422E-03   -0.17816E-03  6952   0.172E-01    0.773E-02
DAV:   6    -0.945692173154E+02   -0.47238E-04   -0.42034E-04  6800   0.107E-01    0.566E-02
DAV:   7    -0.945691673645E+02    0.49951E-04   -0.44480E-04  6536   0.104E-01    0.263E-02
DAV:   8    -0.945691531453E+02    0.14219E-04   -0.87022E-05  5688   0.480E-02    0.116E-02
DAV:   9    -0.945691514977E+02    0.16476E-05   -0.13096E-05  4144   0.250E-02
  16 F= -.97631324E+02 E0= -.97630827E+02  d E =-.475894E-02
       N       E                     dE             d eps       ncg     rms          rms(c)
DAV:   1    -0.945694224391E+02   -0.26929E-03   -0.17504E-01  5720   0.146E+00    0.101E-01
DAV:   2    -0.945704814248E+02   -0.10590E-02   -0.11515E-02  6792   0.352E-01    0.593E-02
DAV:   3    -0.945705147763E+02   -0.33352E-04   -0.79142E-04  7648   0.129E-01    0.498E-02
DAV:   4    -0.945704909706E+02    0.23806E-04   -0.24000E-04  6248   0.844E-02    0.331E-02
DAV:   5    -0.945705030822E+02   -0.12112E-04   -0.98107E-05  5768   0.456E-02    0.348E-02
DAV:   6    -0.945704978842E+02    0.51980E-05   -0.81723E-05  4992   0.327E-02
  17 F= -.97632754E+02 E0= -.97632282E+02  d E =-.142947E-02
       N       E                     dE             d eps       ncg     rms          rms(c)
DAV:   1    -0.945645652713E+02    0.59378E-02   -0.15740E+00  5728   0.438E+00    0.300E-01
DAV:   2    -0.945739511984E+02   -0.93859E-02   -0.10192E-01  6576   0.103E+00    0.175E-01
DAV:   3    -0.945742596244E+02   -0.30843E-03   -0.72630E-03  7360   0.384E-01    0.149E-01
DAV:   4    -0.945740526353E+02    0.20699E-03   -0.22800E-03  7280   0.259E-01    0.998E-02
DAV:   5    -0.945741946033E+02   -0.14197E-03   -0.10945E-03  7376   0.139E-01    0.125E-01
DAV:   6    -0.945740728382E+02    0.12177E-03   -0.75181E-04  6552   0.854E-02    0.694E-02
DAV:   7    -0.945740535740E+02    0.19264E-04   -0.19399E-04  6432   0.529E-02    0.241E-02
DAV:   8    -0.945740464047E+02    0.71694E-05   -0.48538E-05  5976   0.393E-02
  18 F= -.97636561E+02 E0= -.97636180E+02  d E =-.523675E-02
       N       E                     dE             d eps       ncg     rms          rms(c)
DAV:   1    -0.945411057076E+02    0.32948E-01   -0.63087E+00  5712   0.876E+00    0.600E-01
DAV:   2    -0.945787994861E+02   -0.37694E-01   -0.40877E-01  6592   0.206E+00    0.359E-01
DAV:   3    -0.945800650718E+02   -0.12656E-02   -0.28528E-02  7376   0.706E-01    0.336E-01
DAV:   4    -0.945791608293E+02    0.90424E-03   -0.76164E-03  7016   0.411E-01    0.219E-01
DAV:   5    -0.945795874557E+02   -0.42663E-03   -0.30424E-03  7696   0.175E-01    0.208E-01
DAV:   6    -0.945793985261E+02    0.18893E-03   -0.38675E-03  7552   0.287E-01    0.138E-01
DAV:   7    -0.945791676814E+02    0.23084E-03   -0.12525E-03  6552   0.180E-01    0.405E-02
DAV:   8    -0.945791483039E+02    0.19377E-04   -0.17891E-04  7280   0.707E-02    0.174E-02
DAV:   9    -0.945791475308E+02    0.77309E-06   -0.54494E-05  5872   0.297E-02
  19 F= -.97642224E+02 E0= -.97642004E+02  d E =-.108995E-01
       N       E                     dE             d eps       ncg     rms          rms(c)
DAV:   1    -0.944269219427E+02    0.15223E+00   -0.25302E+01  5736   0.176E+01    0.122E+00
DAV:   2    -0.945804729421E+02   -0.15355E+00   -0.16553E+00  6752   0.412E+00    0.787E-01
DAV:   3    -0.945889573149E+02   -0.84844E-02   -0.13242E-01  7584   0.139E+00    0.921E-01
DAV:   4    -0.945814909743E+02    0.74663E-02   -0.38361E-02  7040   0.593E-01    0.491E-01
DAV:   5    -0.945828245048E+02   -0.13335E-02   -0.17436E-02  8480   0.569E-01    0.373E-01
DAV:   6    -0.945812054636E+02    0.16190E-02   -0.14842E-02  7576   0.716E-01    0.218E-01
DAV:   7    -0.945809310712E+02    0.27439E-03   -0.32071E-03  6848   0.345E-01    0.742E-02
DAV:   8    -0.945808831784E+02    0.47893E-04   -0.74530E-04  7448   0.147E-01    0.332E-02
DAV:   9    -0.945808824014E+02    0.77697E-06   -0.21556E-04  7400   0.622E-02    0.210E-02
DAV:  10    -0.945808797149E+02    0.26865E-05   -0.22955E-05  4840   0.275E-02
  20 F= -.97645265E+02 E0= -.97645377E+02  d E =-.139406E-01
       N       E                     dE             d eps       ncg     rms          rms(c)
DAV:   1    -0.945624462606E+02    0.18436E-01   -0.41296E+00  5640   0.689E+00    0.489E-01
DAV:   2    -0.945835359629E+02   -0.21090E-01   -0.23960E-01  6992   0.158E+00    0.281E-01
DAV:   3    -0.945842262125E+02   -0.69025E-03   -0.14482E-02  7616   0.458E-01    0.256E-01
DAV:   4    -0.945841273372E+02    0.98875E-04   -0.40164E-03  7360   0.225E-01    0.215E-01
DAV:   5    -0.945842672877E+02   -0.13995E-03   -0.26722E-03  6992   0.185E-01    0.157E-01
DAV:   6    -0.945840544351E+02    0.21285E-03   -0.28175E-03  7056   0.281E-01    0.959E-02
DAV:   7    -0.945839300955E+02    0.12434E-03   -0.70187E-04  6304   0.161E-01    0.256E-02
DAV:   8    -0.945839262500E+02    0.38456E-05   -0.10764E-04  6976   0.559E-02    0.153E-02
DAV:   9    -0.945839260844E+02    0.16561E-06   -0.31955E-05  5376   0.259E-02
  21 F= -.97648646E+02 E0= -.97648833E+02  d E =-.338118E-02
       N       E                     dE             d eps       ncg     rms          rms(c)
DAV:   1    -0.945827760480E+02    0.11502E-02   -0.23245E-01  5616   0.164E+00    0.118E-01
DAV:   2    -0.945839657349E+02   -0.11897E-02   -0.13589E-02  7048   0.380E-01    0.656E-02
DAV:   3    -0.945839993414E+02   -0.33606E-04   -0.78998E-04  7352   0.111E-01    0.535E-02
DAV:   4    -0.945840065819E+02   -0.72405E-05   -0.22139E-04  6520   0.683E-02    0.470E-02
DAV:   5    -0.945840040856E+02    0.24963E-05   -0.11713E-04  5696   0.332E-02    0.355E-02
DAV:   6    -0.945840078003E+02   -0.37147E-05   -0.13517E-04  4904   0.515E-02    0.285E-02
DAV:   7    -0.945839950403E+02    0.12760E-04   -0.62722E-05  5128   0.455E-02    0.631E-03
DAV:   8    -0.945839950716E+02   -0.31254E-07   -0.50538E-06  3344   0.156E-02
  22 F= -.97648799E+02 E0= -.97649006E+02  d E =-.353419E-02
       N       E                     dE             d eps       ncg     rms          rms(c)
DAV:   1    -0.945858125593E+02   -0.18175E-02   -0.17143E-01  5448   0.120E+00    0.870E-02
DAV:   2    -0.945864450699E+02   -0.63251E-03   -0.66474E-03  7232   0.266E-01    0.730E-02
DAV:   3    -0.945865258239E+02   -0.80754E-04   -0.89651E-04  7120   0.104E-01    0.986E-02
DAV:   4    -0.945864154704E+02    0.11035E-03   -0.33253E-04  6080   0.674E-02    0.334E-02
DAV:   5    -0.945864301771E+02   -0.14707E-04   -0.10490E-04  5312   0.531E-02    0.272E-02
DAV:   6    -0.945864160868E+02    0.14090E-04   -0.79788E-05  4848   0.527E-02    0.121E-02
DAV:   7    -0.945864170406E+02   -0.95374E-06   -0.16935E-05  4440   0.223E-02
  23 F= -.97650910E+02 E0= -.97651105E+02  d E =-.211062E-02
       N       E                     dE             d eps       ncg     rms          rms(c)
DAV:   1    -0.945872710985E+02   -0.85501E-03   -0.15422E+00  5448   0.360E+00    0.261E-01
DAV:   2    -0.945930741327E+02   -0.58030E-02   -0.60917E-02  7104   0.803E-01    0.219E-01
DAV:   3    -0.945938335655E+02   -0.75943E-03   -0.82701E-03  7760   0.329E-01    0.296E-01
DAV:   4    -0.945928272022E+02    0.10064E-02   -0.30041E-03  7720   0.204E-01    0.101E-01
DAV:   5    -0.945929518032E+02   -0.12460E-03   -0.94006E-04  7712   0.156E-01    0.810E-02
DAV:   6    -0.945928288751E+02    0.12293E-03   -0.72509E-04  6344   0.157E-01    0.350E-02
DAV:   7    -0.945928317565E+02   -0.28814E-05   -0.14477E-04  6504   0.627E-02    0.165E-02
DAV:   8    -0.945928297031E+02    0.20533E-05   -0.26630E-05  5408   0.258E-02
  24 F= -.97656399E+02 E0= -.97656566E+02  d E =-.759952E-02
       N       E                     dE             d eps       ncg     rms          rms(c)
DAV:   1    -0.945789075122E+02    0.13924E-01   -0.61723E+00  5448   0.721E+00    0.520E-01
DAV:   2    -0.946028645990E+02   -0.23957E-01   -0.25024E-01  7032   0.163E+00    0.442E-01
DAV:   3    -0.946060689059E+02   -0.32043E-02   -0.34932E-02  7712   0.689E-01    0.594E-01
DAV:   4    -0.946019156104E+02    0.41533E-02   -0.11801E-02  8048   0.436E-01    0.203E-01
DAV:   5    -0.946024264230E+02   -0.51081E-03   -0.37748E-03  8432   0.328E-01    0.163E-01
DAV:   6    -0.946019051201E+02    0.52130E-03   -0.29197E-03  6904   0.343E-01    0.698E-02
DAV:   7    -0.946019261591E+02   -0.21039E-04   -0.57578E-04  7312   0.118E-01    0.338E-02
DAV:   8    -0.946019183630E+02    0.77961E-05   -0.10608E-04  6656   0.488E-02    0.221E-02
DAV:   9    -0.946019169081E+02    0.14549E-05   -0.28979E-05  5232   0.248E-02
  25 F= -.97663686E+02 E0= -.97663790E+02  d E =-.148871E-01
       N       E                     dE             d eps       ncg     rms          rms(c)
DAV:   1    -0.945063922792E+02    0.95526E-01   -0.24739E+01  5440   0.145E+01    0.105E+00
DAV:   2    -0.946091031709E+02   -0.10271E+00   -0.10649E+00  6984   0.337E+00    0.923E-01
DAV:   3    -0.946233333956E+02   -0.14230E-01   -0.16240E-01  7688   0.153E+00    0.122E+00
DAV:   4    -0.946050996202E+02    0.18234E-01   -0.47288E-02  8312   0.932E-01    0.418E-01
DAV:   5    -0.946071746592E+02   -0.20750E-02   -0.15035E-02  8112   0.624E-01    0.327E-01
DAV:   6    -0.946050115622E+02    0.21631E-02   -0.11775E-02  6984   0.721E-01    0.141E-01
DAV:   7    -0.946050709669E+02   -0.59405E-04   -0.21665E-03  7400   0.220E-01    0.577E-02
DAV:   8    -0.946050716513E+02   -0.68444E-06   -0.40684E-04  7136   0.838E-02    0.426E-02
DAV:   9    -0.946050657993E+02    0.58521E-05   -0.83753E-05  6568   0.519E-02
  26 F= -.97663434E+02 E0= -.97663430E+02  d E =-.146349E-01
       N       E                     dE             d eps       ncg     rms          rms(c)
DAV:   1    -0.945810981184E+02    0.23974E-01   -0.64476E+00  5448   0.735E+00    0.534E-01
DAV:   2    -0.946068507304E+02   -0.25753E-01   -0.27190E-01  7168   0.166E+00    0.429E-01
DAV:   3    -0.946099689069E+02   -0.31182E-02   -0.31354E-02  7512   0.612E-01    0.611E-01
DAV:   4    -0.946059958470E+02    0.39731E-02   -0.13344E-02  7400   0.402E-01    0.213E-01
DAV:   5    -0.946063617378E+02   -0.36589E-03   -0.39332E-03  8000   0.331E-01    0.172E-01
DAV:   6    -0.946059749351E+02    0.38680E-03   -0.29122E-03  6832   0.304E-01    0.945E-02
DAV:   7    -0.946059687244E+02    0.62107E-05   -0.76011E-04  7464   0.150E-01    0.465E-02
DAV:   8    -0.946059405814E+02    0.28143E-04   -0.18101E-04  7176   0.699E-02    0.207E-02
DAV:   9    -0.946059396233E+02    0.95813E-06   -0.34580E-05  5440   0.268E-02
  27 F= -.97666014E+02 E0= -.97666067E+02  d E =-.172154E-01
       N       E                     dE             d eps       ncg     rms          rms(c)
DAV:   1    -0.946070646962E+02   -0.11241E-02   -0.70299E-02  5456   0.756E-01    0.602E-02
DAV:   2    -0.946073470849E+02   -0.28239E-03   -0.29425E-03  7416   0.179E-01    0.571E-02
DAV:   3    -0.946073482300E+02   -0.11451E-05   -0.39334E-04  6056   0.813E-02    0.583E-02
DAV:   4    -0.946073199829E+02    0.28247E-04   -0.13049E-04  5832   0.333E-02    0.285E-02
DAV:   5    -0.946073200931E+02   -0.11018E-06   -0.54378E-05  4208   0.393E-02
  28 F= -.97667248E+02 E0= -.97667301E+02  d E =-.123352E-02
       N       E                     dE             d eps       ncg     rms          rms(c)
DAV:   1    -0.946081815579E+02   -0.86157E-03   -0.63329E-01  5440   0.230E+00    0.188E-01
DAV:   2    -0.946108551584E+02   -0.26736E-02   -0.27808E-02  7104   0.533E-01    0.172E-01
DAV:   3    -0.946108815837E+02   -0.26425E-04   -0.40927E-03  7352   0.279E-01    0.177E-01
DAV:   4    -0.946106282387E+02    0.25335E-03   -0.11788E-03  7128   0.998E-02    0.917E-02
DAV:   5    -0.946106493372E+02   -0.21098E-04   -0.60503E-04  6864   0.118E-01    0.795E-02
DAV:   6    -0.946105976651E+02    0.51672E-04   -0.36061E-04  6536   0.107E-01    0.372E-02
DAV:   7    -0.946105863242E+02    0.11341E-04   -0.10577E-04  6560   0.607E-02    0.128E-02
DAV:   8    -0.946105854802E+02    0.84405E-06   -0.30012E-05  5376   0.254E-02
  29 F= -.97670076E+02 E0= -.97670150E+02  d E =-.406171E-02
       N       E                     dE             d eps       ncg     rms          rms(c)
DAV:   1    -0.946037203058E+02    0.68660E-02   -0.25365E+00  5440   0.458E+00    0.374E-01
DAV:   2    -0.946145732873E+02   -0.10853E-01   -0.11316E-01  7288   0.103E+00    0.346E-01
DAV:   3    -0.946147343317E+02   -0.16104E-03   -0.15717E-02  7440   0.499E-01    0.366E-01
DAV:   4    -0.946135730694E+02    0.11613E-02   -0.47816E-03  7664   0.194E-01    0.176E-01
DAV:   5    -0.946136287683E+02   -0.55699E-04   -0.20793E-03  7568   0.219E-01    0.148E-01
DAV:   6    -0.946134855934E+02    0.14317E-03   -0.13450E-03  6552   0.219E-01    0.780E-02
DAV:   7    -0.946134243551E+02    0.61238E-04   -0.46206E-04  6552   0.120E-01    0.277E-02
DAV:   8    -0.946134205982E+02    0.37569E-05   -0.10979E-04  6624   0.459E-02    0.148E-02
DAV:   9    -0.946134209987E+02   -0.40047E-06   -0.11287E-05  4032   0.206E-02
  30 F= -.97672054E+02 E0= -.97672150E+02  d E =-.603989E-02
       N       E                     dE             d eps       ncg     rms          rms(c)
DAV:   1    -0.946132638112E+02    0.15679E-03   -0.26252E-02  5544   0.461E-01    0.362E-02
DAV:   2    -0.946133794664E+02   -0.11566E-03   -0.11237E-03  7080   0.110E-01    0.405E-02
DAV:   3    -0.946133745214E+02    0.49451E-05   -0.18084E-04  5912   0.533E-02    0.356E-02
DAV:   4    -0.946133665745E+02    0.79468E-05   -0.47550E-05  5312   0.212E-02
  31 F= -.97672086E+02 E0= -.97672178E+02  d E =-.607186E-02
       N       E                     dE             d eps       ncg     rms          rms(c)
DAV:   1    -0.946138869025E+02   -0.51238E-03   -0.16316E-02  5464   0.368E-01    0.340E-02
DAV:   2    -0.946139730003E+02   -0.86098E-04   -0.74878E-04  7400   0.984E-02    0.410E-02
DAV:   3    -0.946139646316E+02    0.83687E-05   -0.21689E-04  6128   0.680E-02    0.334E-02
DAV:   4    -0.946139497272E+02    0.14904E-04   -0.41451E-05  4616   0.260E-02    0.825E-03
DAV:   5    -0.946139522252E+02   -0.24980E-05   -0.90199E-06  3416   0.129E-02
  32 F= -.97672620E+02 E0= -.97672700E+02  d E =-.533999E-03
       N       E                     dE             d eps       ncg     rms          rms(c)
DAV:   1    -0.946150857334E+02   -0.11360E-02   -0.14722E-01  5440   0.110E+00    0.862E-02
DAV:   2    -0.946155926785E+02   -0.50695E-03   -0.56460E-03  7280   0.242E-01    0.606E-02
DAV:   3    -0.946156489704E+02   -0.56292E-04   -0.53183E-04  6888   0.765E-02    0.772E-02
DAV:   4    -0.946155966002E+02    0.52370E-04   -0.26032E-04  6256   0.507E-02    0.399E-02
DAV:   5    -0.946156041066E+02   -0.75063E-05   -0.10988E-04  5128   0.607E-02    0.296E-02
DAV:   6    -0.946155913031E+02    0.12803E-04   -0.87834E-05  4616   0.498E-02    0.129E-02
DAV:   7    -0.946155919211E+02   -0.61803E-06   -0.13703E-05  3752   0.152E-02
  33 F= -.97674106E+02 E0= -.97674154E+02  d E =-.201934E-02
       N       E                     dE             d eps       ncg     rms          rms(c)
DAV:   1    -0.946163502042E+02   -0.75890E-03   -0.58888E-01  5440   0.220E+00    0.173E-01
DAV:   2    -0.946183896584E+02   -0.20395E-02   -0.22654E-02  7168   0.485E-01    0.120E-01
DAV:   3    -0.946185995257E+02   -0.20987E-03   -0.21006E-03  7792   0.158E-01    0.151E-01
DAV:   4    -0.946184056635E+02    0.19386E-03   -0.10202E-03  6832   0.935E-02    0.797E-02
DAV:   5    -0.946184356497E+02   -0.29986E-04   -0.45553E-04  6808   0.120E-01    0.601E-02
DAV:   6    -0.946183767604E+02    0.58889E-04   -0.33264E-04  5984   0.930E-02    0.266E-02
DAV:   7    -0.946183775839E+02   -0.82348E-06   -0.45786E-05  5216   0.250E-02
  34 F= -.97676585E+02 E0= -.97676568E+02  d E =-.449906E-02
       N       E                     dE             d eps       ncg     rms          rms(c)
DAV:   1    -0.946139019365E+02    0.44748E-02   -0.23554E+00  5440   0.440E+00    0.347E-01
DAV:   2    -0.946220744058E+02   -0.81725E-02   -0.90794E-02  7120   0.975E-01    0.238E-01
DAV:   3    -0.946228798186E+02   -0.80541E-03   -0.82501E-03  7872   0.321E-01    0.297E-01
DAV:   4    -0.946221483961E+02    0.73142E-03   -0.39988E-03  7392   0.182E-01    0.162E-01
DAV:   5    -0.946222762086E+02   -0.12781E-03   -0.18461E-03  7080   0.240E-01    0.123E-01
DAV:   6    -0.946220247019E+02    0.25151E-03   -0.13444E-03  6632   0.184E-01    0.531E-02
DAV:   7    -0.946220293438E+02   -0.46419E-05   -0.18273E-04  6144   0.485E-02    0.158E-02
DAV:   8    -0.946220319220E+02   -0.25782E-05   -0.45994E-05  5320   0.279E-02
  35 F= -.97679639E+02 E0= -.97679491E+02  d E =-.755254E-02
       N       E                     dE             d eps       ncg     rms          rms(c)
DAV:   1    -0.945887757530E+02    0.33254E-01   -0.94147E+00  5440   0.880E+00    0.704E-01
DAV:   2    -0.946217560770E+02   -0.32980E-01   -0.36667E-01  7104   0.197E+00    0.474E-01
DAV:   3    -0.946247480972E+02   -0.29920E-02   -0.32254E-02  7760   0.669E-01    0.581E-01
DAV:   4    -0.946221490896E+02    0.25990E-02   -0.15713E-02  7544   0.359E-01    0.335E-01
DAV:   5    -0.946226930614E+02   -0.54397E-03   -0.75669E-03  7360   0.483E-01    0.256E-01
DAV:   6    -0.946215966963E+02    0.10964E-02   -0.54459E-03  7184   0.364E-01    0.109E-01
DAV:   7    -0.946216337842E+02   -0.37088E-04   -0.70918E-04  7760   0.979E-02    0.320E-02
DAV:   8    -0.946216428617E+02   -0.90776E-05   -0.17518E-04  6816   0.554E-02    0.237E-02
DAV:   9    -0.946216489118E+02   -0.60501E-05   -0.23939E-05  5272   0.257E-02
  36 F= -.97678098E+02 E0= -.97677720E+02  d E =-.601136E-02
       N       E                     dE             d eps       ncg     rms          rms(c)
DAV:   1    -0.946094908529E+02    0.12152E-01   -0.39727E+00  5440   0.570E+00    0.433E-01
DAV:   2    -0.946231932702E+02   -0.13702E-01   -0.15038E-01  7152   0.124E+00    0.311E-01
DAV:   3    -0.946247217221E+02   -0.15285E-02   -0.14893E-02  8360   0.403E-01    0.399E-01
DAV:   4    -0.946232097794E+02    0.15119E-02   -0.67732E-03  7696   0.270E-01    0.195E-01
DAV:   5    -0.946233943588E+02   -0.18458E-03   -0.25589E-03  7208   0.293E-01    0.141E-01
DAV:   6    -0.946230906635E+02    0.30370E-03   -0.21371E-03  6592   0.260E-01    0.708E-02
DAV:   7    -0.946230608535E+02    0.29810E-04   -0.40494E-04  6152   0.755E-02    0.228E-02
DAV:   8    -0.946230642536E+02   -0.34000E-05   -0.10927E-04  5688   0.382E-02    0.171E-02
DAV:   9    -0.946230633143E+02    0.93926E-06   -0.14674E-05  4344   0.199E-02
  37 F= -.97680258E+02 E0= -.97680027E+02  d E =-.817194E-02
       N       E                     dE             d eps       ncg     rms          rms(c)
DAV:   1    -0.946239620270E+02   -0.89777E-03   -0.67955E-02  5440   0.761E-01    0.651E-02
DAV:   2    -0.946242067932E+02   -0.24477E-03   -0.26122E-03  7472   0.175E-01    0.400E-02
DAV:   3    -0.946242337691E+02   -0.26976E-04   -0.23863E-04  6688   0.619E-02    0.549E-02
DAV:   4    -0.946242052839E+02    0.28485E-04   -0.13058E-04  5824   0.331E-02    0.246E-02
DAV:   5    -0.946242123499E+02   -0.70660E-05   -0.65282E-05  4432   0.468E-02
  38 F= -.97681276E+02 E0= -.97681029E+02  d E =-.101792E-02
       N       E                     dE             d eps       ncg     rms          rms(c)
DAV:   1    -0.946248620978E+02   -0.65681E-03   -0.61530E-01  5440   0.229E+00    0.196E-01
DAV:   2    -0.946270580284E+02   -0.21959E-02   -0.23441E-02  7256   0.520E-01    0.120E-01
DAV:   3    -0.946273066612E+02   -0.24863E-03   -0.22694E-03  7416   0.200E-01    0.163E-01
DAV:   4    -0.946270704882E+02    0.23617E-03   -0.12092E-03  7288   0.101E-01    0.773E-02
DAV:   5    -0.946271517086E+02   -0.81220E-04   -0.71806E-04  6648   0.142E-01    0.663E-02
DAV:   6    -0.946270376967E+02    0.11401E-03   -0.46065E-04  6152   0.111E-01    0.220E-02
DAV:   7    -0.946270393554E+02   -0.16588E-05   -0.38102E-05  5112   0.228E-02
  39 F= -.97683713E+02 E0= -.97683401E+02  d E =-.345432E-02
       N       E                     dE             d eps       ncg     rms          rms(c)
DAV:   1    -0.946213359248E+02    0.57018E-02   -0.24639E+00  5440   0.458E+00    0.391E-01
DAV:   2    -0.946300918646E+02   -0.87559E-02   -0.93512E-02  7056   0.103E+00    0.234E-01
DAV:   3    -0.946312302646E+02   -0.11384E-02   -0.89883E-03  7616   0.351E-01    0.337E-01
DAV:   4    -0.946301871018E+02    0.10432E-02   -0.51403E-03  7648   0.204E-01    0.147E-01
DAV:   5    -0.946304102871E+02   -0.22319E-03   -0.22948E-03  7008   0.270E-01    0.115E-01
DAV:   6    -0.946300794061E+02    0.33088E-03   -0.15791E-03  6984   0.216E-01    0.470E-02
DAV:   7    -0.946300768936E+02    0.25124E-05   -0.16910E-04  6112   0.460E-02    0.143E-02
DAV:   8    -0.946300783737E+02   -0.14801E-05   -0.45373E-05  5512   0.294E-02
  40 F= -.97685982E+02 E0= -.97685558E+02  d E =-.572404E-02
       N       E                     dE             d eps       ncg     rms          rms(c)
DAV:   1    -0.946299957769E+02    0.81117E-04   -0.70088E-02  5440   0.772E-01    0.677E-02
DAV:   2    -0.946302499066E+02   -0.25413E-03   -0.27282E-03  7416   0.176E-01    0.390E-02
DAV:   3    -0.946302776133E+02   -0.27707E-04   -0.22222E-04  6384   0.524E-02    0.523E-02
DAV:   4    -0.946302547697E+02    0.22844E-04   -0.13320E-04  5944   0.339E-02    0.265E-02
DAV:   5    -0.946302593952E+02   -0.46255E-05   -0.57142E-05  4400   0.437E-02
  41 F= -.97686035E+02 E0= -.97685596E+02  d E =-.577690E-02
       N       E                     dE             d eps       ncg     rms          rms(c)
DAV:   1    -0.946310439380E+02   -0.78917E-03   -0.10032E-01  5456   0.912E-01    0.693E-02
DAV:   2    -0.946313917022E+02   -0.34776E-03   -0.37998E-03  7512   0.208E-01    0.464E-02
DAV:   3    -0.946313930673E+02   -0.13651E-05   -0.27748E-04  6624   0.729E-02    0.415E-02
DAV:   4    -0.946313804452E+02    0.12622E-04   -0.94768E-05  5976   0.498E-02    0.272E-02
DAV:   5    -0.946313865729E+02   -0.61276E-05   -0.32918E-05  5496   0.293E-02
  42 F= -.97686999E+02 E0= -.97686566E+02  d E =-.963878E-03
       N       E                     dE             d eps       ncg     rms          rms(c)
DAV:   1    -0.946312153332E+02    0.16511E-03   -0.90287E-01  5464   0.272E+00    0.210E-01
DAV:   2    -0.946346472574E+02   -0.34319E-02   -0.35283E-02  7240   0.650E-01    0.176E-01
DAV:   3    -0.946346589459E+02   -0.11689E-04   -0.79056E-03  7064   0.499E-01    0.184E-01
DAV:   4    -0.946341656850E+02    0.49326E-03   -0.21174E-03  7632   0.218E-01    0.109E-01
DAV:   5    -0.946341280418E+02    0.37643E-04   -0.44295E-04  8088   0.708E-02    0.754E-02
DAV:   6    -0.946341507601E+02   -0.22718E-04   -0.23525E-04  6816   0.836E-02    0.503E-02
DAV:   7    -0.946341315395E+02    0.19221E-04   -0.14369E-04  6528   0.708E-02    0.183E-02
DAV:   8    -0.946341277322E+02    0.38073E-05   -0.30175E-05  5560   0.267E-02
  43 F= -.97689254E+02 E0= -.97688843E+02  d E =-.321914E-02
       N       E                     dE             d eps       ncg     rms          rms(c)
DAV:   1    -0.946247185229E+02    0.94130E-02   -0.36096E+00  5464   0.546E+00    0.420E-01
DAV:   2    -0.946377265846E+02   -0.13008E-01   -0.14056E-01  7128   0.124E+00    0.290E-01
DAV:   3    -0.946378152070E+02   -0.88622E-04   -0.20525E-02  7192   0.791E-01    0.266E-01
DAV:   4    -0.946367021584E+02    0.11130E-02   -0.57319E-03  7096   0.408E-01    0.171E-01
DAV:   5    -0.946370853705E+02   -0.38321E-03   -0.23511E-03  8416   0.200E-01    0.198E-01
DAV:   6    -0.946368616787E+02    0.22369E-03   -0.17469E-03  6736   0.129E-01    0.124E-01
DAV:   7    -0.946367639031E+02    0.97776E-04   -0.60289E-04  6896   0.109E-01    0.427E-02
DAV:   8    -0.946367459739E+02    0.17929E-04   -0.15331E-04  6744   0.572E-02    0.150E-02
DAV:   9    -0.946367444544E+02    0.15195E-05   -0.21948E-05  4936   0.258E-02
  44 F= -.97690917E+02 E0= -.97690553E+02  d E =-.488207E-02
       N       E                     dE             d eps       ncg     rms          rms(c)
DAV:   1    -0.946374443560E+02   -0.69838E-03   -0.91474E-02  5472   0.866E-01    0.692E-02
DAV:   2    -0.946377356124E+02   -0.29126E-03   -0.33361E-03  7184   0.188E-01    0.383E-02
DAV:   3    -0.946377503778E+02   -0.14765E-04   -0.27115E-04  6496   0.767E-02    0.377E-02
DAV:   4    -0.946377371720E+02    0.13206E-04   -0.12314E-04  5848   0.562E-02    0.272E-02
DAV:   5    -0.946377418747E+02   -0.47027E-05   -0.52891E-05  5328   0.262E-02
  45 F= -.97691747E+02 E0= -.97691384E+02  d E =-.829698E-03
       N       E                     dE             d eps       ncg     rms          rms(c)
DAV:   1    -0.946375446576E+02    0.19251E-03   -0.82228E-01  5464   0.259E+00    0.204E-01
DAV:   2    -0.946401528242E+02   -0.26082E-02   -0.29737E-02  7120   0.563E-01    0.118E-01
DAV:   3    -0.946402803468E+02   -0.12752E-03   -0.31167E-03  7392   0.284E-01    0.121E-01
DAV:   4    -0.946400812503E+02    0.19910E-03   -0.97252E-04  7336   0.166E-01    0.709E-02
DAV:   5    -0.946401710291E+02   -0.89779E-04   -0.43588E-04  7152   0.979E-02    0.727E-02
DAV:   6    -0.946401430182E+02    0.28011E-04   -0.49014E-04  6736   0.845E-02    0.631E-02
DAV:   7    -0.946401095591E+02    0.33459E-04   -0.15144E-04  6112   0.391E-02    0.192E-02
DAV:   8    -0.946401038864E+02    0.56727E-05   -0.23724E-05  4632   0.251E-02
  46 F= -.97693608E+02 E0= -.97693249E+02  d E =-.269116E-02
       N       E                     dE             d eps       ncg     rms          rms(c)
DAV:   1    -0.946316586776E+02    0.84509E-02   -0.32880E+00  5464   0.519E+00    0.403E-01
DAV:   2    -0.946422324358E+02   -0.10574E-01   -0.12094E-01  7032   0.113E+00    0.221E-01
DAV:   3    -0.946426571753E+02   -0.42474E-03   -0.94185E-03  7536   0.452E-01    0.208E-01
DAV:   4    -0.946422441681E+02    0.41301E-03   -0.38966E-03  7640   0.328E-01    0.152E-01
DAV:   5    -0.946425003206E+02   -0.25615E-03   -0.20588E-03  8000   0.173E-01    0.175E-01
DAV:   6    -0.946422768068E+02    0.22351E-03   -0.15424E-03  7344   0.120E-01    0.915E-02
DAV:   7    -0.946422282569E+02    0.48550E-04   -0.50179E-04  7048   0.119E-01    0.393E-02
DAV:   8    -0.946422031453E+02    0.25112E-04   -0.94139E-05  6384   0.456E-02    0.127E-02
DAV:   9    -0.946422022837E+02    0.86158E-06   -0.16703E-05  4576   0.186E-02
  47 F= -.97694718E+02 E0= -.97694357E+02  d E =-.380028E-02
       N       E                     dE             d eps       ncg     rms          rms(c)
DAV:   1    -0.946416595958E+02    0.54355E-03   -0.13226E-01  5464   0.104E+00    0.806E-02
DAV:   2    -0.946420765248E+02   -0.41693E-03   -0.47664E-03  7272   0.224E-01    0.458E-02
DAV:   3    -0.946420921474E+02   -0.15623E-04   -0.41272E-04  6584   0.963E-02    0.436E-02
DAV:   4    -0.946420698649E+02    0.22283E-04   -0.16131E-04  5920   0.692E-02    0.312E-02
DAV:   5    -0.946420794333E+02   -0.95684E-05   -0.80329E-05  5536   0.335E-02
  48 F= -.97694792E+02 E0= -.97694429E+02  d E =-.387482E-02
       N       E                     dE             d eps       ncg     rms          rms(c)
DAV:   1    -0.946427832237E+02   -0.71336E-03   -0.74685E-02  5440   0.782E-01    0.707E-02
DAV:   2    -0.946430488005E+02   -0.26558E-03   -0.28953E-03  7200   0.181E-01    0.533E-02
DAV:   3    -0.946430569243E+02   -0.81238E-05   -0.29909E-04  6488   0.645E-02    0.586E-02
DAV:   4    -0.946430260313E+02    0.30893E-04   -0.18605E-04  6040   0.468E-02    0.293E-02
DAV:   5    -0.946430236565E+02    0.23748E-05   -0.35740E-05  4616   0.357E-02
  49 F= -.97695638E+02 E0= -.97695292E+02  d E =-.846102E-03
       N       E                     dE             d eps       ncg     rms          rms(c)
DAV:   1    -0.946433795847E+02   -0.35355E-03   -0.67189E-01  5440   0.235E+00    0.217E-01
DAV:   2    -0.946456528628E+02   -0.22733E-02   -0.25374E-02  7440   0.513E-01    0.142E-01
DAV:   3    -0.946456204343E+02    0.32428E-04   -0.18337E-03  7200   0.159E-01    0.143E-01
DAV:   4    -0.946455259511E+02    0.94483E-04   -0.94934E-04  6616   0.958E-02    0.927E-02
DAV:   5    -0.946456180719E+02   -0.92121E-04   -0.71364E-04  6768   0.103E-01    0.818E-02
DAV:   6    -0.946455512843E+02    0.66788E-04   -0.78715E-04  6312   0.150E-01    0.438E-02
DAV:   7    -0.946455169747E+02    0.34310E-04   -0.21173E-04  6144   0.848E-02    0.191E-02
DAV:   8    -0.946455078989E+02    0.90758E-05   -0.28527E-05  4936   0.292E-02
  50 F= -.97697829E+02 E0= -.97697512E+02  d E =-.303719E-02
       N       E                     dE             d eps       ncg     rms          rms(c)
DAV:   1    -0.946402005558E+02    0.53164E-02   -0.26877E+00  5440   0.470E+00    0.435E-01
DAV:   2    -0.946495226684E+02   -0.93221E-02   -0.10307E-01  7368   0.102E+00    0.282E-01
DAV:   3    -0.946493849723E+02    0.13770E-03   -0.98939E-03  7384   0.473E-01    0.276E-01
DAV:   4    -0.946487067122E+02    0.67826E-03   -0.38298E-03  7312   0.279E-01    0.153E-01
DAV:   5    -0.946492041352E+02   -0.49742E-03   -0.20575E-03  8600   0.130E-01    0.191E-01
DAV:   6    -0.946489995996E+02    0.20454E-03   -0.25950E-03  6400   0.229E-01    0.100E-01
DAV:   7    -0.946488254065E+02    0.17419E-03   -0.93954E-04  6296   0.171E-01    0.380E-02
DAV:   8    -0.946487918132E+02    0.33593E-04   -0.10919E-04  6288   0.541E-02    0.126E-02
DAV:   9    -0.946487916084E+02    0.20482E-06   -0.24300E-05  4976   0.211E-02
  51 F= -.97700531E+02 E0= -.97700269E+02  d E =-.573931E-02
       N       E                     dE             d eps       ncg     rms          rms(c)
DAV:   1    -0.946133337903E+02    0.35458E-01   -0.10741E+01  5440   0.940E+00    0.886E-01
DAV:   2    -0.946513679475E+02   -0.38034E-01   -0.41988E-01  7328   0.208E+00    0.567E-01
DAV:   3    -0.946511912400E+02    0.17671E-03   -0.40006E-02  7640   0.947E-01    0.577E-01
DAV:   4    -0.946483038963E+02    0.28873E-02   -0.15580E-02  7128   0.564E-01    0.325E-01
DAV:   5    -0.946505827847E+02   -0.22789E-02   -0.99205E-03  8832   0.304E-01    0.406E-01
DAV:   6    -0.946493192625E+02    0.12635E-02   -0.11627E-02  7344   0.562E-01    0.191E-01
DAV:   7    -0.946487454411E+02    0.57382E-03   -0.35391E-03  7392   0.339E-01    0.806E-02
DAV:   8    -0.946485929025E+02    0.15254E-03   -0.50292E-04  7360   0.125E-01    0.286E-02
DAV:   9    -0.946485943633E+02   -0.14609E-05   -0.12302E-04  6296   0.470E-02    0.207E-02
DAV:  10    -0.946485939798E+02    0.38350E-06   -0.13080E-05  4168   0.208E-02
  52 F= -.97699190E+02 E0= -.97699039E+02  d E =-.439775E-02
       N       E                     dE             d eps       ncg     rms          rms(c)
DAV:   1    -0.946341255561E+02    0.14469E-01   -0.48502E+00  5440   0.632E+00    0.588E-01
DAV:   2    -0.946510298398E+02   -0.16904E-01   -0.18587E-01  7048   0.138E+00    0.378E-01
DAV:   3    -0.946509220408E+02    0.10780E-03   -0.21669E-02  7632   0.711E-01    0.359E-01
DAV:   4    -0.946495595622E+02    0.13625E-02   -0.72741E-03  7936   0.470E-01    0.197E-01
DAV:   5    -0.946499135031E+02   -0.35394E-03   -0.22127E-03  7352   0.237E-01    0.144E-01
DAV:   6    -0.946498403944E+02    0.73109E-04   -0.10812E-03  8064   0.189E-01    0.845E-02
DAV:   7    -0.946499282669E+02   -0.87873E-04   -0.11137E-03  6496   0.142E-01    0.106E-01
DAV:   8    -0.946497501472E+02    0.17812E-03   -0.60759E-04  6528   0.107E-01    0.236E-02
DAV:   9    -0.946497433066E+02    0.68406E-05   -0.45685E-05  5840   0.303E-02
  53 F= -.97701105E+02 E0= -.97700881E+02  d E =-.631313E-02
       N       E                     dE             d eps       ncg     rms          rms(c)
DAV:   1    -0.946486800265E+02    0.10701E-02   -0.73668E-01  5456   0.251E+00    0.246E-01
DAV:   2    -0.946515965271E+02   -0.29165E-02   -0.31713E-02  6968   0.578E-01    0.186E-01
DAV:   3    -0.946516536478E+02   -0.57121E-04   -0.59213E-03  7080   0.393E-01    0.202E-01
DAV:   4    -0.946512474831E+02    0.40616E-03   -0.14925E-03  7040   0.164E-01    0.104E-01
DAV:   5    -0.946514831298E+02   -0.23565E-03   -0.10870E-03  7872   0.127E-01    0.140E-01
DAV:   6    -0.946512965890E+02    0.18654E-03   -0.11361E-03  6312   0.183E-01    0.554E-02
DAV:   7    -0.946512486969E+02    0.47892E-04   -0.26096E-04  6368   0.104E-01    0.202E-02
DAV:   8    -0.946512431543E+02    0.55426E-05   -0.53866E-05  6312   0.359E-02
  54 F= -.97702728E+02 E0= -.97702559E+02  d E =-.162317E-02
       N       E                     dE             d eps       ncg     rms          rms(c)
DAV:   1    -0.946510387433E+02    0.20995E-03   -0.97618E-02  5440   0.916E-01    0.901E-02
DAV:   2    -0.946514219698E+02   -0.38323E-03   -0.42292E-03  7136   0.213E-01    0.632E-02
DAV:   3    -0.946514314320E+02   -0.94622E-05   -0.76053E-04  6672   0.146E-01    0.641E-02
DAV:   4    -0.946513799408E+02    0.51491E-04   -0.20476E-04  6040   0.760E-02    0.341E-02
DAV:   5    -0.946513880130E+02   -0.80722E-05   -0.46853E-05  5768   0.375E-02
  55 F= -.97702919E+02 E0= -.97702769E+02  d E =-.181357E-02
       N       E                     dE             d eps       ncg     rms          rms(c)
DAV:   1    -0.946510203814E+02    0.35956E-03   -0.40151E-01  5536   0.206E+00    0.145E-01
DAV:   2    -0.946527990126E+02   -0.17786E-02   -0.19747E-02  6920   0.472E-01    0.974E-02
DAV:   3    -0.946531251129E+02   -0.32610E-03   -0.25079E-03  7448   0.196E-01    0.160E-01
DAV:   4    -0.946528202346E+02    0.30488E-03   -0.98219E-04  7168   0.128E-01    0.519E-02
DAV:   5    -0.946528391478E+02   -0.18913E-04   -0.17342E-04  6416   0.626E-02    0.375E-02
DAV:   6    -0.946528323715E+02    0.67763E-05   -0.18966E-04  5536   0.793E-02    0.271E-02
DAV:   7    -0.946528271615E+02    0.52100E-05   -0.62568E-05  5288   0.469E-02
  56 F= -.97704669E+02 E0= -.97704514E+02  d E =-.175003E-02
       N       E                     dE             d eps       ncg     rms          rms(c)
DAV:   1    -0.946509990323E+02    0.18333E-02   -0.68382E-01  5536   0.269E+00    0.191E-01
DAV:   2    -0.946539408974E+02   -0.29419E-02   -0.33296E-02  6792   0.605E-01    0.108E-01
DAV:   3    -0.946543125837E+02   -0.37169E-03   -0.31224E-03  8056   0.213E-01    0.163E-01
DAV:   4    -0.946540539407E+02    0.25864E-03   -0.11765E-03  6984   0.130E-01    0.714E-02
DAV:   5    -0.946540711456E+02   -0.17205E-04   -0.30426E-04  6456   0.814E-02    0.485E-02
DAV:   6    -0.946540557961E+02    0.15349E-04   -0.31201E-04  6104   0.104E-01    0.341E-02
DAV:   7    -0.946540441357E+02    0.11660E-04   -0.78493E-05  5608   0.570E-02    0.865E-03
DAV:   8    -0.946540442043E+02   -0.68605E-07   -0.12999E-05  3720   0.218E-02
  57 F= -.97706295E+02 E0= -.97706152E+02  d E =-.337672E-02
       N       E                     dE             d eps       ncg     rms          rms(c)
DAV:   1    -0.946420462318E+02    0.11998E-01   -0.27347E+00  5544   0.538E+00    0.377E-01
DAV:   2    -0.946540091632E+02   -0.11963E-01   -0.13421E-01  6856   0.121E+00    0.222E-01
DAV:   3    -0.946557110431E+02   -0.17019E-02   -0.13409E-02  8160   0.465E-01    0.353E-01
DAV:   4    -0.946543578505E+02    0.13532E-02   -0.51188E-03  7616   0.281E-01    0.136E-01
DAV:   5    -0.946544296932E+02   -0.71843E-04   -0.10603E-03  7472   0.151E-01    0.913E-02
DAV:   6    -0.946544066026E+02    0.23091E-04   -0.12003E-03  6864   0.207E-01    0.692E-02
DAV:   7    -0.946543424187E+02    0.64184E-04   -0.32634E-04  6352   0.113E-01    0.167E-02
DAV:   8    -0.946543453478E+02   -0.29292E-05   -0.63719E-05  6096   0.388E-02
  58 F= -.97707428E+02 E0= -.97707300E+02  d E =-.450959E-02
       N       E                     dE             d eps       ncg     rms          rms(c)
DAV:   1    -0.946544613776E+02   -0.11896E-03   -0.78546E-02  5552   0.923E-01    0.679E-02
DAV:   2    -0.946548266178E+02   -0.36524E-03   -0.39590E-03  6944   0.212E-01    0.401E-02
DAV:   3    -0.946548583394E+02   -0.31722E-04   -0.34666E-04  6904   0.767E-02    0.518E-02
DAV:   4    -0.946548356718E+02    0.22668E-04   -0.13781E-04  5704   0.400E-02    0.275E-02
DAV:   5    -0.946548410227E+02   -0.53509E-05   -0.63747E-05  4696   0.404E-02
  59 F= -.97708089E+02 E0= -.97707965E+02  d E =-.660500E-03
       N       E                     dE             d eps       ncg     rms          rms(c)
DAV:   1    -0.946527134562E+02    0.21222E-02   -0.70450E-01  5528   0.277E+00    0.199E-01
DAV:   2    -0.946559836707E+02   -0.32702E-02   -0.35139E-02  6688   0.632E-01    0.127E-01
DAV:   3    -0.946562774843E+02   -0.29381E-03   -0.34512E-03  7912   0.250E-01    0.161E-01
DAV:   4    -0.946560314384E+02    0.24605E-03   -0.12370E-03  7072   0.126E-01    0.814E-02
DAV:   5    -0.946561085526E+02   -0.77114E-04   -0.65806E-04  6904   0.123E-01    0.742E-02
DAV:   6    -0.946560165458E+02    0.92007E-04   -0.47993E-04  6064   0.128E-01    0.270E-02
DAV:   7    -0.946560154345E+02    0.11113E-05   -0.68038E-05  6112   0.544E-02
  60 F= -.97709761E+02 E0= -.97709662E+02  d E =-.233257E-02
       N       E                     dE             d eps       ncg     rms          rms(c)
DAV:   1    -0.946437426046E+02    0.12274E-01   -0.28220E+00  5544   0.554E+00    0.400E-01
DAV:   2    -0.946569585982E+02   -0.13216E-01   -0.14198E-01  6576   0.125E+00    0.255E-01
DAV:   3    -0.946584938335E+02   -0.15352E-02   -0.14486E-02  8464   0.425E-01    0.371E-01
DAV:   4    -0.946571390576E+02    0.13548E-02   -0.57075E-03  7280   0.239E-01    0.155E-01
DAV:   5    -0.946573179529E+02   -0.17890E-03   -0.23352E-03  7840   0.245E-01    0.124E-01
DAV:   6    -0.946570743473E+02    0.24361E-03   -0.15903E-03  6512   0.250E-01    0.572E-02
DAV:   7    -0.946570628628E+02    0.11484E-04   -0.27667E-04  6568   0.106E-01    0.209E-02
DAV:   8    -0.946570611610E+02    0.17018E-05   -0.64524E-05  6128   0.423E-02
  61 F= -.97711817E+02 E0= -.97711776E+02  d E =-.438851E-02
       N       E                     dE             d eps       ncg     rms          rms(c)
DAV:   1    -0.945996161876E+02    0.57447E-01   -0.11289E+01  5544   0.111E+01    0.799E-01
DAV:   2    -0.946537215229E+02   -0.54105E-01   -0.57804E-01  6768   0.250E+00    0.533E-01
DAV:   3    -0.946607867822E+02   -0.70653E-02   -0.62937E-02  8248   0.907E-01    0.797E-01
DAV:   4    -0.946540966250E+02    0.66902E-02   -0.24279E-02  7416   0.534E-01    0.296E-01
DAV:   5    -0.946549032880E+02   -0.80666E-03   -0.92692E-03  8520   0.512E-01    0.242E-01
DAV:   6    -0.946539218657E+02    0.98142E-03   -0.61705E-03  6944   0.534E-01    0.111E-01
DAV:   7    -0.946538970016E+02    0.24864E-04   -0.11066E-03  6912   0.205E-01    0.442E-02
DAV:   8    -0.946538861284E+02    0.10873E-04   -0.26971E-04  7016   0.904E-02    0.241E-02
DAV:   9    -0.946538847786E+02    0.13498E-05   -0.65320E-05  6432   0.426E-02
  62 F= -.97710721E+02 E0= -.97710779E+02  d E =-.329275E-02
       N       E                     dE             d eps       ncg     rms          rms(c)
DAV:   1    -0.946325768916E+02    0.21309E-01   -0.50997E+00  5552   0.745E+00    0.532E-01
DAV:   2    -0.946564113147E+02   -0.23834E-01   -0.25764E-01  6584   0.170E+00    0.310E-01
DAV:   3    -0.946580410968E+02   -0.16298E-02   -0.21671E-02  7624   0.669E-01    0.361E-01
DAV:   4    -0.946569400537E+02    0.11010E-02   -0.77947E-03  7112   0.363E-01    0.217E-01
DAV:   5    -0.946573716017E+02   -0.43155E-03   -0.39229E-03  8856   0.273E-01    0.193E-01
DAV:   6    -0.946568438591E+02    0.52774E-03   -0.32329E-03  7616   0.306E-01    0.842E-02
DAV:   7    -0.946568012063E+02    0.42653E-04   -0.59672E-04  6872   0.164E-01    0.345E-02
DAV:   8    -0.946567896713E+02    0.11535E-04   -0.15676E-04  7120   0.721E-02    0.155E-02
DAV:   9    -0.946567886028E+02    0.10685E-05   -0.30588E-05  5496   0.298E-02
  63 F= -.97712217E+02 E0= -.97712206E+02  d E =-.478817E-02
       N       E                     dE             d eps       ncg     rms          rms(c)
DAV:   1    -0.946574553988E+02   -0.66573E-03   -0.18202E-02  5464   0.395E-01    0.374E-02
DAV:   2    -0.946575352324E+02   -0.79834E-04   -0.86624E-04  7224   0.104E-01    0.250E-02
DAV:   3    -0.946575450750E+02   -0.98427E-05   -0.11687E-04  6136   0.558E-02    0.292E-02
DAV:   4    -0.946575340252E+02    0.11050E-04   -0.66091E-05  5368   0.427E-02    0.171E-02
DAV:   5    -0.946575345464E+02   -0.52125E-06   -0.16926E-05  4048   0.148E-02
  64 F= -.97712975E+02 E0= -.97712968E+02  d E =-.758570E-03
       N       E                     dE             d eps       ncg     rms          rms(c)
DAV:   1    -0.946581892969E+02   -0.65527E-03   -0.16408E-01  5480   0.118E+00    0.115E-01
DAV:   2    -0.946588955899E+02   -0.70629E-03   -0.75060E-03  6928   0.306E-01    0.771E-02
DAV:   3    -0.946590185930E+02   -0.12300E-03   -0.15404E-03  7792   0.222E-01    0.953E-02
DAV:   4    -0.946588746334E+02    0.14396E-03   -0.71431E-04  6592   0.135E-01    0.530E-02
DAV:   5    -0.946588826238E+02   -0.79904E-05   -0.21177E-04  6824   0.477E-02    0.479E-02
DAV:   6    -0.946588618277E+02    0.20796E-04   -0.12785E-04  5600   0.601E-02    0.193E-02
DAV:   7    -0.946588602657E+02    0.15620E-05   -0.26181E-05  5136   0.358E-02
  65 F= -.97714340E+02 E0= -.97714348E+02  d E =-.212387E-02
       N       E                     dE             d eps       ncg     rms          rms(c)
DAV:   1    -0.946546031299E+02    0.42587E-02   -0.65658E-01  5480   0.236E+00    0.229E-01
DAV:   2    -0.946574048055E+02   -0.28017E-02   -0.29884E-02  6976   0.585E-01    0.153E-01
DAV:   3    -0.946579990613E+02   -0.59426E-03   -0.57795E-03  7960   0.390E-01    0.213E-01
DAV:   4    -0.946573379840E+02    0.66108E-03   -0.28571E-03  6760   0.246E-01    0.952E-02
DAV:   5    -0.946573647220E+02   -0.26738E-04   -0.62718E-04  7128   0.853E-02    0.798E-02
DAV:   6    -0.946573179494E+02    0.46773E-04   -0.54551E-04  6304   0.132E-01    0.424E-02
DAV:   7    -0.946572981181E+02    0.19831E-04   -0.14172E-04  6160   0.804E-02    0.156E-02
DAV:   8    -0.946572936662E+02    0.44519E-05   -0.24158E-05  4880   0.306E-02
  66 F= -.97712860E+02 E0= -.97712905E+02  d E =-.643434E-03
       N       E                     dE             d eps       ncg     rms          rms(c)
DAV:   1    -0.946574467638E+02   -0.14865E-03   -0.38375E-01  5472   0.181E+00    0.174E-01
DAV:   2    -0.946590911844E+02   -0.16444E-02   -0.17498E-02  7064   0.453E-01    0.119E-01
DAV:   3    -0.946594238494E+02   -0.33267E-03   -0.34107E-03  7808   0.304E-01    0.162E-01
DAV:   4    -0.946590350845E+02    0.38876E-03   -0.16416E-03  6616   0.194E-01    0.714E-02
DAV:   5    -0.946590517994E+02   -0.16715E-04   -0.37292E-04  7128   0.676E-02    0.609E-02
DAV:   6    -0.946590232939E+02    0.28505E-04   -0.32470E-04  6104   0.999E-02    0.319E-02
DAV:   7    -0.946590093054E+02    0.13989E-04   -0.84637E-05  5856   0.625E-02    0.129E-02
DAV:   8    -0.946590062975E+02    0.30078E-05   -0.13424E-05  4408   0.241E-02
  67 F= -.97714506E+02 E0= -.97714520E+02  d E =-.228934E-02
       N       E                     dE             d eps       ncg     rms          rms(c)
DAV:   1    -0.946595271376E+02   -0.51783E-03   -0.27669E-02  5472   0.498E-01    0.467E-02
DAV:   2    -0.946596484974E+02   -0.12136E-03   -0.12317E-03  7208   0.126E-01    0.410E-02
DAV:   3    -0.946596628749E+02   -0.14377E-04   -0.22042E-04  6288   0.552E-02    0.485E-02
DAV:   4    -0.946596404385E+02    0.22436E-04   -0.10104E-04  5592   0.344E-02    0.185E-02
DAV:   5    -0.946596401497E+02    0.28878E-06   -0.55317E-05  4144   0.453E-02
  68 F= -.97715149E+02 E0= -.97715163E+02  d E =-.642672E-03
       N       E                     dE             d eps       ncg     rms          rms(c)
DAV:   1    -0.946598579523E+02   -0.21751E-03   -0.24952E-01  5480   0.150E+00    0.142E-01
DAV:   2    -0.946609233381E+02   -0.10654E-02   -0.10816E-02  7112   0.369E-01    0.127E-01
DAV:   3    -0.946610491640E+02   -0.12583E-03   -0.20810E-03  7168   0.168E-01    0.146E-01
DAV:   4    -0.946608594524E+02    0.18971E-03   -0.95262E-04  6448   0.108E-01    0.577E-02
DAV:   5    -0.946608482777E+02    0.11175E-04   -0.53356E-04  6816   0.138E-01    0.442E-02
DAV:   6    -0.946608119980E+02    0.36280E-04   -0.15083E-04  5688   0.724E-02    0.138E-02
DAV:   7    -0.946608138514E+02   -0.18534E-05   -0.32076E-05  5416   0.270E-02
  69 F= -.97716352E+02 E0= -.97716360E+02  d E =-.184594E-02
       N       E                     dE             d eps       ncg     rms          rms(c)
DAV:   1    -0.946561060089E+02    0.47060E-02   -0.99828E-01  5488   0.299E+00    0.281E-01
DAV:   2    -0.946603390439E+02   -0.42330E-02   -0.43121E-02  7128   0.740E-01    0.244E-01
DAV:   3    -0.946609164969E+02   -0.57745E-03   -0.84301E-03  7360   0.352E-01    0.289E-01
DAV:   4    -0.946601715967E+02    0.74490E-03   -0.39249E-03  7792   0.210E-01    0.117E-01
DAV:   5    -0.946601167801E+02    0.54817E-04   -0.20478E-03  7664   0.273E-01    0.871E-02
DAV:   6    -0.946599870402E+02    0.12974E-03   -0.63127E-04  6176   0.146E-01    0.351E-02
DAV:   7    -0.946599852493E+02    0.17909E-05   -0.14747E-04  7152   0.638E-02    0.203E-02
DAV:   8    -0.946599772587E+02    0.79906E-05   -0.31836E-05  5408   0.367E-02
  70 F= -.97715588E+02 E0= -.97715572E+02  d E =-.108244E-02
       N       E                     dE             d eps       ncg     rms          rms(c)
DAV:   1    -0.946592037236E+02    0.78153E-03   -0.47745E-01  5488   0.207E+00    0.195E-01
DAV:   2    -0.946612502239E+02   -0.20465E-02   -0.20625E-02  7272   0.505E-01    0.179E-01
DAV:   3    -0.946614752711E+02   -0.22505E-03   -0.40374E-03  7224   0.226E-01    0.201E-01
DAV:   4    -0.946610920271E+02    0.38324E-03   -0.17510E-03  6808   0.150E-01    0.752E-02
DAV:   5    -0.946610820212E+02    0.10006E-04   -0.99326E-04  7248   0.186E-01    0.609E-02
DAV:   6    -0.946610108224E+02    0.71199E-04   -0.30391E-04  5912   0.108E-01    0.208E-02
DAV:   7    -0.946610112893E+02   -0.46692E-06   -0.65316E-05  6224   0.388E-02
  71 F= -.97716570E+02 E0= -.97716561E+02  d E =-.206389E-02
       N       E                     dE             d eps       ncg     rms          rms(c)
DAV:   1    -0.946612306544E+02   -0.21983E-03   -0.30381E-02  5536   0.526E-01    0.354E-02
DAV:   2    -0.946613617716E+02   -0.13112E-03   -0.13522E-03  6816   0.133E-01    0.341E-02
DAV:   3    -0.946613695116E+02   -0.77400E-05   -0.20132E-04  6448   0.717E-02    0.367E-02
DAV:   4    -0.946613536004E+02    0.15911E-04   -0.54671E-05  5176   0.369E-02    0.169E-02
DAV:   5    -0.946613561007E+02   -0.25002E-05   -0.22335E-05  3936   0.212E-02
  72 F= -.97717009E+02 E0= -.97717010E+02  d E =-.438928E-03
       N       E                     dE             d eps       ncg     rms          rms(c)
DAV:   1    -0.946607281129E+02    0.62549E-03   -0.25008E-01  5552   0.151E+00    0.103E-01
DAV:   2    -0.946617809109E+02   -0.10528E-02   -0.10896E-02  6968   0.389E-01    0.929E-02
DAV:   3    -0.946618483681E+02   -0.67457E-04   -0.18133E-03  7696   0.239E-01    0.104E-01
DAV:   4    -0.946617185854E+02    0.12978E-03   -0.47958E-04  6968   0.101E-01    0.526E-02
DAV:   5    -0.946617320099E+02   -0.13424E-04   -0.19711E-04  5992   0.605E-02    0.493E-02
DAV:   6    -0.946617034244E+02    0.28586E-04   -0.11757E-04  6008   0.663E-02    0.141E-02
DAV:   7    -0.946617045860E+02   -0.11616E-05   -0.34668E-05  5328   0.347E-02
  73 F= -.97717630E+02 E0= -.97717644E+02  d E =-.105993E-02
       N       E                     dE             d eps       ncg     rms          rms(c)
DAV:   1    -0.946619155292E+02   -0.21210E-03   -0.42048E-02  5536   0.620E-01    0.503E-02
DAV:   2    -0.946620903191E+02   -0.17479E-03   -0.18005E-03  6640   0.147E-01    0.378E-02
DAV:   3    -0.946621328982E+02   -0.42579E-04   -0.29225E-04  6792   0.671E-02    0.605E-02
DAV:   4    -0.946620905138E+02    0.42384E-04   -0.12454E-04  5184   0.469E-02    0.158E-02
DAV:   5    -0.946620967081E+02   -0.61943E-05   -0.42166E-05  4216   0.411E-02
  74 F= -.97718139E+02 E0= -.97718156E+02  d E =-.509572E-03
       N       E                     dE             d eps       ncg     rms          rms(c)
DAV:   1    -0.946610958951E+02    0.99462E-03   -0.37744E-01  5552   0.185E+00    0.150E-01
DAV:   2    -0.946626974033E+02   -0.16015E-02   -0.16265E-02  6632   0.428E-01    0.125E-01
DAV:   3    -0.946630132735E+02   -0.31587E-03   -0.27096E-03  7816   0.189E-01    0.178E-01
DAV:   4    -0.946626700124E+02    0.34326E-03   -0.10581E-03  6784   0.132E-01    0.503E-02
DAV:   5    -0.946627338617E+02   -0.63849E-04   -0.53872E-04  6760   0.137E-01    0.468E-02
DAV:   6    -0.946626567687E+02    0.77093E-04   -0.28833E-04  6048   0.101E-01    0.130E-02
DAV:   7    -0.946626586194E+02   -0.18507E-05   -0.30648E-05  5144   0.228E-02
  75 F= -.97719058E+02 E0= -.97719077E+02  d E =-.142838E-02
