       N       E                     dE             d eps       ncg     rms          rms(c)
DAV:   1     0.288323109479E+04    0.28832E+04   -0.88947E+04  7072   0.226E+03
DAV:   2     0.576729846391E+03   -0.23065E+04   -0.22079E+04  5640   0.749E+02
DAV:   3    -0.736265547203E+01   -0.58409E+03   -0.55795E+03  6736   0.265E+02
DAV:   4    -0.917990447094E+02   -0.84436E+02   -0.82574E+02  7848   0.101E+02
DAV:   5    -0.986787072961E+02   -0.68797E+01   -0.67959E+01  8480   0.283E+01    0.980E+01
DAV:   6    -0.993414039719E+02   -0.66270E+00   -0.54341E+01  8256   0.223E+01    0.605E+01
DAV:   7    -0.145513403786E+03   -0.46172E+02   -0.12022E+03  6720   0.885E+01    0.425E+01
DAV:   8    -0.164200113771E+03   -0.18687E+02   -0.34773E+02  7192   0.636E+01    0.372E+01
DAV:   9    -0.136435130951E+03    0.27765E+02   -0.11325E+02  8104   0.235E+01    0.264E+01
DAV:  10    -0.120068472083E+03    0.16367E+02   -0.32431E+01  7480   0.175E+01    0.218E+01
DAV:  11    -0.108153005087E+03    0.11915E+02   -0.11290E+01  8056   0.115E+01    0.183E+01
DAV:  12    -0.100783391972E+03    0.73696E+01   -0.40638E+00  7944   0.634E+00    0.159E+01
DAV:  13    -0.960863052457E+02    0.46971E+01   -0.55006E+00  7712   0.698E+00    0.133E+01
DAV:  14    -0.912065994325E+02    0.48797E+01   -0.31755E+00  7736   0.437E+00    0.986E+00
DAV:  15    -0.882873663146E+02    0.29192E+01   -0.40701E+00  8072   0.409E+00    0.294E+00
DAV:  16    -0.886668407122E+02   -0.37947E+00   -0.16708E+00  7432   0.253E+00    0.491E+00
DAV:  17    -0.881862766482E+02    0.48056E+00   -0.52401E-01  7296   0.227E+00    0.196E+00
DAV:  18    -0.899659206651E+02   -0.17796E+01   -0.43253E+00  7320   0.328E+00    0.181E+01
DAV:  19    -0.899767727200E+02   -0.10852E-01   -0.36302E-01  7280   0.122E+00    0.181E+01
DAV:  20    -0.898766497061E+02    0.10012E+00   -0.36979E-02  9144   0.334E-01    0.175E+01
DAV:  21    -0.900711239117E+02   -0.19447E+00   -0.25222E-02  6376   0.304E-01    0.185E+01
DAV:  22    -0.903337549801E+02   -0.26263E+00   -0.49582E-02  6840   0.472E-01    0.197E+01
DAV:  23    -0.899518881283E+02    0.38187E+00   -0.96026E-02  6536   0.754E-01    0.176E+01
DAV:  24    -0.899373818383E+02    0.14506E-01   -0.22423E-02  7888   0.576E-01    0.174E+01
DAV:  25    -0.895911483212E+02    0.34623E+00   -0.92281E-02  7256   0.456E-01    0.154E+01
DAV:  26    -0.885837084847E+02    0.10074E+01   -0.15189E+00  7208   0.157E+00    0.782E+00
DAV:  27    -0.882069501242E+02    0.37676E+00   -0.89423E-01  7272   0.126E+00    0.396E+00
DAV:  28    -0.881881543391E+02    0.18796E-01   -0.63762E-02  7352   0.770E-01    0.330E+00
DAV:  29    -0.881684587194E+02    0.19696E-01   -0.11813E-02  7688   0.311E-01    0.289E+00
DAV:  30    -0.881421253443E+02    0.26333E-01   -0.69672E-02  6744   0.587E-01    0.223E+00
DAV:  31    -0.881412599040E+02    0.86544E-03   -0.14179E-02  7104   0.323E-01    0.190E+00
DAV:  32    -0.881573071324E+02   -0.16047E-01   -0.27862E-02  7480   0.351E-01    0.228E+00
DAV:  33    -0.881396064148E+02    0.17701E-01   -0.43244E-02  6936   0.425E-01    0.171E+00
DAV:  34    -0.881402467098E+02   -0.64029E-03   -0.42505E-03  6536   0.213E-01    0.147E+00
DAV:  35    -0.881427014692E+02   -0.24548E-02   -0.38280E-03  6632   0.202E-01    0.122E+00
DAV:  36    -0.881468592385E+02   -0.41578E-02   -0.32472E-03  7088   0.157E-01    0.113E+00
DAV:  37    -0.881502751380E+02   -0.34159E-02   -0.13820E-03  6632   0.129E-01    0.106E+00
DAV:  38    -0.881517191616E+02   -0.14440E-02   -0.66758E-04  6840   0.983E-02    0.931E-01
DAV:  39    -0.881526865301E+02   -0.96737E-03   -0.62279E-04  6744   0.993E-02    0.844E-01
DAV:  40    -0.881508945678E+02    0.17920E-02   -0.71552E-04  6704   0.991E-02    0.688E-01
DAV:  41    -0.881487912031E+02    0.21034E-02   -0.10389E-03  7176   0.979E-02    0.521E-01
DAV:  42    -0.881468846961E+02    0.19065E-02   -0.11944E-03  6976   0.887E-02    0.374E-01
DAV:  43    -0.881464331791E+02    0.45152E-03   -0.21355E-04  7240   0.447E-02    0.360E-01
DAV:  44    -0.881460039271E+02    0.42925E-03   -0.12304E-04  5704   0.330E-02    0.340E-01
DAV:  45    -0.881457334736E+02    0.27045E-03   -0.93124E-05  5680   0.304E-02    0.362E-01
DAV:  46    -0.881455346376E+02    0.19884E-03   -0.58544E-05  5408   0.210E-02    0.354E-01
DAV:  47    -0.881454935336E+02    0.41104E-04   -0.58033E-06  3680   0.976E-03    0.360E-01
DAV:  48    -0.881454474747E+02    0.46059E-04   -0.58839E-06  4016   0.109E-02    0.356E-01
DAV:  49    -0.881453696101E+02    0.77865E-04   -0.30147E-05  5176   0.145E-02    0.339E-01
DAV:  50    -0.881453628374E+02    0.67727E-05   -0.24089E-05  4720   0.203E-02
   1 F= -.91104913E+02 E0= -.91107051E+02  d E =-.911049E+02
       N       E                     dE             d eps       ncg     rms          rms(c)
DAV:   1    -0.197149148588E+02    0.68430E+02   -0.39613E+03  6824   0.107E+02    0.801E+01
DAV:   2    -0.920093478356E+02   -0.72294E+02   -0.72948E+02  7032   0.502E+01    0.472E+01
DAV:   3    -0.984235227623E+02   -0.64142E+01   -0.32523E+02  8480   0.453E+01    0.491E+01
DAV:   4    -0.874184964368E+02    0.11005E+02   -0.24570E+02  7632   0.472E+01    0.294E+01
DAV:   5    -0.818561625137E+02    0.55623E+01   -0.40436E+01  7640   0.176E+01    0.165E+01
DAV:   6    -0.803124058562E+02    0.15438E+01   -0.14971E+01  7736   0.139E+01    0.118E+01
DAV:   7    -0.836710405482E+02   -0.33586E+01   -0.15204E+01  8040   0.145E+01    0.271E+01
DAV:   8    -0.788910878223E+02    0.47800E+01   -0.26528E+01  7656   0.100E+01    0.409E+00
DAV:   9    -0.787994817769E+02    0.91606E-01   -0.29159E+00  7392   0.559E+00    0.335E+00
DAV:  10    -0.787908086142E+02    0.86732E-02   -0.43126E-01  7776   0.293E+00    0.319E+00
DAV:  11    -0.787704117083E+02    0.20397E-01   -0.15222E-01  8056   0.173E+00    0.238E+00
DAV:  12    -0.787184719810E+02    0.51940E-01   -0.76858E-02  7488   0.122E+00    0.128E+00
DAV:  13    -0.787039322877E+02    0.14540E-01   -0.18555E-02  7784   0.501E-01    0.723E-01
DAV:  14    -0.787004465814E+02    0.34857E-02   -0.35350E-03  8336   0.218E-01    0.513E-01
DAV:  15    -0.786980737802E+02    0.23728E-02   -0.41659E-03  7632   0.213E-01    0.185E-01
DAV:  16    -0.786981889612E+02   -0.11518E-03   -0.12319E-03  7128   0.187E-01    0.952E-02
DAV:  17    -0.786985606022E+02   -0.37164E-03   -0.87249E-04  7920   0.110E-01    0.950E-02
DAV:  18    -0.786987776395E+02   -0.21704E-03   -0.17106E-04  6128   0.670E-02    0.446E-02
DAV:  19    -0.786989372381E+02   -0.15960E-03   -0.63493E-05  6144   0.385E-02    0.230E-02
DAV:  20    -0.786993082529E+02   -0.37101E-03   -0.78459E-05  5048   0.270E-02    0.202E-02
DAV:  21    -0.786994995277E+02   -0.19127E-03   -0.36094E-05  4800   0.192E-02    0.234E-02
DAV:  22    -0.786996109972E+02   -0.11147E-03   -0.21632E-05  4448   0.204E-02    0.117E-02
DAV:  23    -0.786996372946E+02   -0.26297E-04   -0.78170E-06  4600   0.152E-02    0.101E-02
DAV:  24    -0.786996394068E+02   -0.21121E-05   -0.25210E-06  3640   0.109E-02
   2 F= -.81885377E+02 E0= -.81881988E+02  d E =0.921954E+01
       N       E                     dE             d eps       ncg     rms          rms(c)
DAV:   1    -0.303805519633E+02    0.48319E+02   -0.25536E+03  6856   0.123E+02    0.376E+01
DAV:   2    -0.986970798824E+02   -0.68317E+02   -0.69015E+02  8064   0.506E+01    0.237E+01
DAV:   3    -0.101699384090E+03   -0.30023E+01   -0.16585E+02  7704   0.320E+01    0.273E+01
DAV:   4    -0.964655794880E+02    0.52338E+01   -0.49391E+01  7400   0.186E+01    0.226E+01
DAV:   5    -0.970735029556E+02   -0.60792E+00   -0.23421E+01  7864   0.116E+01    0.191E+01
DAV:   6    -0.964196983655E+02    0.65380E+00   -0.56741E+00  7368   0.818E+00    0.198E+01
DAV:   7    -0.955390034001E+02    0.88069E+00   -0.24132E+01  7176   0.100E+01    0.880E+00
DAV:   8    -0.946532579144E+02    0.88575E+00   -0.46117E+00  8256   0.699E+00    0.502E+00
DAV:   9    -0.943398053437E+02    0.31345E+00   -0.78139E-01  7560   0.377E+00    0.318E+00
DAV:  10    -0.942617355173E+02    0.78070E-01   -0.21511E-01  7248   0.229E+00    0.169E+00
DAV:  11    -0.942510558682E+02    0.10680E-01   -0.26207E-01  7208   0.172E+00    0.128E+00
DAV:  12    -0.942419658577E+02    0.90900E-02   -0.15783E-01  7432   0.148E+00    0.753E-01
DAV:  13    -0.942362693531E+02    0.56965E-02   -0.15466E-02  7416   0.504E-01    0.510E-01
DAV:  14    -0.942343892314E+02    0.18801E-02   -0.32380E-03  7976   0.216E-01    0.327E-01
DAV:  15    -0.942337385334E+02    0.65070E-03   -0.48746E-03  7488   0.237E-01    0.179E-01
DAV:  16    -0.942334839456E+02    0.25459E-03   -0.12513E-03  6936   0.123E-01    0.213E-01
DAV:  17    -0.942334126414E+02    0.71304E-04   -0.23938E-04  6952   0.758E-02    0.148E-01
DAV:  18    -0.942334888226E+02   -0.76181E-04   -0.17199E-04  6816   0.565E-02    0.561E-02
DAV:  19    -0.942344860790E+02   -0.99726E-03   -0.88471E-04  6424   0.820E-02    0.170E-01
DAV:  20    -0.942348012798E+02   -0.31520E-03   -0.17958E-04  6360   0.660E-02    0.754E-02
DAV:  21    -0.942350782605E+02   -0.27698E-03   -0.10708E-04  6056   0.387E-02    0.259E-02
DAV:  22    -0.942353344631E+02   -0.25620E-03   -0.29700E-05  5144   0.228E-02    0.781E-03
DAV:  23    -0.942355101927E+02   -0.17573E-03   -0.16426E-05  4632   0.137E-02    0.973E-03
DAV:  24    -0.942355933121E+02   -0.83119E-04   -0.58751E-06  4448   0.138E-02    0.266E-03
DAV:  25    -0.942356376553E+02   -0.44343E-04   -0.33815E-06  4184   0.867E-03    0.120E-02
DAV:  26    -0.942356566987E+02   -0.19043E-04   -0.13709E-06  3792   0.765E-03    0.104E-02
DAV:  27    -0.942356656173E+02   -0.89186E-05   -0.14476E-06  3680   0.529E-03
   3 F= -.97236093E+02 E0= -.97235553E+02  d E =-.613118E+01
       N       E                     dE             d eps       ncg     rms          rms(c)
DAV:   1    -0.942991232415E+02   -0.63467E-01   -0.38166E+00  6472   0.323E+00    0.964E-01
DAV:   2    -0.943093877583E+02   -0.10265E-01   -0.13113E-01  6808   0.914E-01    0.589E-01
DAV:   3    -0.943113921130E+02   -0.20044E-02   -0.27082E-02  7600   0.770E-01    0.390E-01
DAV:   4    -0.943135216117E+02   -0.21295E-02   -0.58008E-02  7424   0.101E+00    0.508E-01
DAV:   5    -0.943127980079E+02    0.72360E-03   -0.35554E-02  7216   0.405E-01    0.567E-01
DAV:   6    -0.943085408128E+02    0.42572E-02   -0.91374E-03  7088   0.326E-01    0.625E-02
DAV:   7    -0.943085925605E+02   -0.51748E-04   -0.91628E-04  7616   0.107E-01    0.442E-02
DAV:   8    -0.943085706144E+02    0.21946E-04   -0.17060E-04  6904   0.655E-02    0.288E-02
DAV:   9    -0.943085720310E+02   -0.14166E-05   -0.12856E-05  4536   0.232E-02
   4 F= -.97306334E+02 E0= -.97305761E+02  d E =-.620142E+01
       N       E                     dE             d eps       ncg     rms          rms(c)
DAV:   1    -0.932797949702E+02    0.10288E+01   -0.25203E+02  6368   0.255E+01    0.133E+01
DAV:   2    -0.945498362018E+02   -0.12700E+01   -0.15024E+01  7272   0.770E+00    0.794E+00
DAV:   3    -0.946755750752E+02   -0.12574E+00   -0.27978E+00  8024   0.800E+00    0.451E+00
DAV:   4    -0.951745431722E+02   -0.49897E+00   -0.61096E+00  7536   0.943E+00    0.481E+00
DAV:   5    -0.947157492098E+02    0.45879E+00   -0.40702E+00  7200   0.427E+00    0.413E+00
DAV:   6    -0.944361994463E+02    0.27955E+00   -0.59227E-01  6888   0.233E+00    0.101E+00
DAV:   7    -0.944235153993E+02    0.12684E-01   -0.10420E-01  7352   0.119E+00    0.586E-01
DAV:   8    -0.944223777147E+02    0.11377E-02   -0.15285E-02  8088   0.497E-01    0.402E-01
DAV:   9    -0.944218668576E+02    0.51086E-03   -0.56284E-03  7408   0.422E-01    0.213E-01
DAV:  10    -0.944209950721E+02    0.87179E-03   -0.29435E-03  7632   0.216E-01    0.525E-02
DAV:  11    -0.944210084759E+02   -0.13404E-04   -0.34979E-04  7008   0.835E-02    0.371E-02
DAV:  12    -0.944211177509E+02   -0.10927E-03   -0.10996E-04  5576   0.424E-02    0.209E-02
DAV:  13    -0.944213755738E+02   -0.25782E-03   -0.12363E-04  5648   0.402E-02    0.212E-02
DAV:  14    -0.944216331551E+02   -0.25758E-03   -0.42855E-05  5288   0.260E-02    0.912E-03
DAV:  15    -0.944220450488E+02   -0.41189E-03   -0.58189E-05  4704   0.177E-02    0.763E-03
DAV:  16    -0.944221924167E+02   -0.14737E-03   -0.14275E-05  5032   0.153E-02    0.486E-03
DAV:  17    -0.944223257146E+02   -0.13330E-03   -0.11314E-05  4592   0.129E-02    0.314E-03
DAV:  18    -0.944223924652E+02   -0.66751E-04   -0.53723E-06  4504   0.113E-02    0.229E-03
DAV:  19    -0.944224251976E+02   -0.32732E-04   -0.21542E-06  4176   0.733E-03    0.110E-03
DAV:  20    -0.944224372321E+02   -0.12034E-04   -0.10040E-06  3824   0.619E-03    0.125E-03
DAV:  21    -0.944224439703E+02   -0.67383E-05   -0.74572E-07  3800   0.441E-03
   5 F= -.97401444E+02 E0= -.97400874E+02  d E =-.629653E+01
       N       E                     dE             d eps       ncg     rms          rms(c)
DAV:   1    -0.942095154508E+02    0.21292E+00   -0.80058E+01  6200   0.133E+01    0.766E+00
DAV:   2    -0.945130858516E+02   -0.30357E+00   -0.36558E+00  7072   0.403E+00    0.528E+00
DAV:   3    -0.945605466227E+02   -0.47461E-01   -0.68415E-01  7600   0.305E+00    0.181E+00
DAV:   4    -0.948887438506E+02   -0.32820E+00   -0.28321E+00  8368   0.881E+00    0.363E+00
DAV:   5    -0.945563711015E+02    0.33237E+00   -0.17492E+00  7896   0.454E+00    0.240E+00
DAV:   6    -0.944980274977E+02    0.58344E-01   -0.22141E-01  8120   0.119E+00    0.554E-01
DAV:   7    -0.944960248648E+02    0.20026E-02   -0.21840E-02  7688   0.576E-01    0.296E-01
DAV:   8    -0.944962026273E+02   -0.17776E-03   -0.49596E-03  7096   0.298E-01    0.148E-01
DAV:   9    -0.944962030710E+02   -0.44373E-06   -0.13520E-03  7464   0.212E-01    0.708E-02
DAV:  10    -0.944963675130E+02   -0.16444E-03   -0.30102E-04  7552   0.104E-01    0.315E-02
DAV:  11    -0.944965893447E+02   -0.22183E-03   -0.87297E-05  5584   0.338E-02    0.178E-02
DAV:  12    -0.944968273582E+02   -0.23801E-03   -0.63198E-05  4992   0.309E-02    0.115E-02
DAV:  13    -0.944969756045E+02   -0.14825E-03   -0.26345E-05  4848   0.193E-02    0.605E-03
DAV:  14    -0.944971464073E+02   -0.17080E-03   -0.38831E-05  4600   0.135E-02    0.442E-03
DAV:  15    -0.944972712625E+02   -0.12486E-03   -0.34937E-05  4648   0.201E-02    0.231E-03
DAV:  16    -0.944973091089E+02   -0.37846E-04   -0.91630E-06  4920   0.109E-02    0.211E-03
DAV:  17    -0.944973224204E+02   -0.13311E-04   -0.18881E-06  3896   0.702E-03    0.106E-03
DAV:  18    -0.944973325066E+02   -0.10086E-04   -0.24230E-06  4184   0.650E-03    0.111E-03
DAV:  19    -0.944973344798E+02   -0.19732E-05   -0.52134E-07  3504   0.523E-03
   6 F= -.97486089E+02 E0= -.97485410E+02  d E =-.638118E+01
       N       E                     dE             d eps       ncg     rms          rms(c)
DAV:   1    -0.944869848306E+02    0.10348E-01   -0.15435E+01  6264   0.601E+00    0.286E+00
DAV:   2    -0.945283898358E+02   -0.41405E-01   -0.53139E-01  7088   0.170E+00    0.192E+00
DAV:   3    -0.945423753711E+02   -0.13986E-01   -0.14621E-01  7664   0.182E+00    0.851E-01
DAV:   4    -0.945681760017E+02   -0.25801E-01   -0.46032E-01  7872   0.317E+00    0.112E+00
DAV:   5    -0.945438007650E+02    0.24375E-01   -0.26576E-01  7424   0.182E+00    0.123E+00
DAV:   6    -0.945243898961E+02    0.19411E-01   -0.39479E-02  7160   0.486E-01    0.133E-01
DAV:   7    -0.945244361421E+02   -0.46246E-04   -0.35176E-03  7208   0.197E-01    0.842E-02
DAV:   8    -0.945243465881E+02    0.89554E-04   -0.76099E-04  7416   0.117E-01    0.455E-02
DAV:   9    -0.945243481887E+02   -0.16005E-05   -0.91019E-05  6632   0.483E-02
   7 F= -.97508666E+02 E0= -.97507972E+02  d E =-.640375E+01
       N       E                     dE             d eps       ncg     rms          rms(c)
DAV:   1    -0.945231248215E+02    0.12218E-02   -0.65336E-01  5952   0.121E+00    0.629E-01
DAV:   2    -0.945248915937E+02   -0.17668E-02   -0.22355E-02  6944   0.356E-01    0.426E-01
DAV:   3    -0.945272639740E+02   -0.23724E-02   -0.15065E-02  7080   0.455E-01    0.267E-01
DAV:   4    -0.945270910623E+02    0.17291E-03   -0.32619E-02  6880   0.608E-01    0.368E-01
DAV:   5    -0.945255827664E+02    0.15083E-02   -0.89939E-03  7344   0.195E-01    0.211E-01
DAV:   6    -0.945249067393E+02    0.67603E-03   -0.15339E-03  5760   0.155E-01    0.411E-02
DAV:   7    -0.945249292896E+02   -0.22550E-04   -0.13738E-04  6112   0.423E-02    0.241E-02
DAV:   8    -0.945249505616E+02   -0.21272E-04   -0.31205E-05  5280   0.237E-02    0.854E-03
DAV:   9    -0.945249603003E+02   -0.97387E-05   -0.81084E-06  3800   0.170E-02
   8 F= -.97510165E+02 E0= -.97509471E+02  d E =-.640525E+01
       N       E                     dE             d eps       ncg     rms          rms(c)
DAV:   1    -0.947811886807E+02   -0.25624E+00   -0.77648E+01  6192   0.219E+01    0.388E+00
DAV:   2    -0.948535382350E+02   -0.72350E-01   -0.29042E+00  7456   0.595E+00    0.175E+00
DAV:   3    -0.949734996988E+02   -0.11996E+00   -0.87591E-01  7840   0.346E+00    0.365E+00
DAV:   4    -0.948810872590E+02    0.92412E-01   -0.81215E-01  8048   0.183E+00    0.157E+00
DAV:   5    -0.948534895416E+02    0.27598E-01   -0.15235E-01  8208   0.154E+00    0.865E-01
DAV:   6    -0.948550467075E+02   -0.15572E-02   -0.63649E-02  7248   0.979E-01    0.661E-01
DAV:   7    -0.948526557951E+02    0.23909E-02   -0.50803E-02  7640   0.866E-01    0.349E-01
DAV:   8    -0.948499604124E+02    0.26954E-02   -0.78383E-03  7312   0.341E-01    0.226E-01
DAV:   9    -0.948497488372E+02    0.21158E-03   -0.27695E-03  7120   0.146E-01    0.118E-01
DAV:  10    -0.948498341886E+02   -0.85351E-04   -0.24534E-04  7304   0.791E-02    0.621E-02
DAV:  11    -0.948498652514E+02   -0.31063E-04   -0.19307E-04  5944   0.498E-02    0.187E-02
DAV:  12    -0.948498803599E+02   -0.15109E-04   -0.73105E-05  5984   0.306E-02    0.205E-02
DAV:  13    -0.948498923990E+02   -0.12039E-04   -0.53566E-06  3856   0.123E-02    0.140E-02
DAV:  14    -0.948499234897E+02   -0.31091E-04   -0.10092E-05  4608   0.108E-02    0.458E-03
DAV:  15    -0.948499455048E+02   -0.22015E-04   -0.78807E-06  4768   0.836E-03    0.720E-03
DAV:  16    -0.948499548050E+02   -0.93002E-05   -0.11909E-06  3736   0.559E-03
   9 F= -.97839909E+02 E0= -.97838950E+02  d E =-.329744E+00
       N       E                     dE             d eps       ncg     rms          rms(c)
DAV:   1    -0.949600230093E+02   -0.11008E+00   -0.11068E+01  6184   0.825E+00    0.125E+00
DAV:   2    -0.949852760699E+02   -0.25253E-01   -0.40085E-01  7416   0.232E+00    0.712E-01
DAV:   3    -0.950008687544E+02   -0.15593E-01   -0.12580E-01  7424   0.103E+00    0.127E+00
DAV:   4    -0.949852633069E+02    0.15605E-01   -0.86900E-02  7952   0.733E-01    0.510E-01
DAV:   5    -0.949830506761E+02    0.22126E-02   -0.25650E-02  7208   0.608E-01    0.260E-01
DAV:   6    -0.949828479449E+02    0.20273E-03   -0.12471E-02  7520   0.503E-01    0.216E-01
DAV:   7    -0.949823998267E+02    0.44812E-03   -0.51439E-03  7456   0.262E-01    0.113E-01
DAV:   8    -0.949821335334E+02    0.26629E-03   -0.87105E-04  7552   0.117E-01    0.623E-02
DAV:   9    -0.949821267604E+02    0.67730E-05   -0.11879E-04  6168   0.364E-02    0.500E-02
DAV:  10    -0.949821300903E+02   -0.33300E-05   -0.80709E-06  4056   0.167E-02
  10 F= -.97969896E+02 E0= -.97969068E+02  d E =-.459731E+00
       N       E                     dE             d eps       ncg     rms          rms(c)
DAV:   1    -0.950438799945E+02   -0.61753E-01   -0.45968E+01  6128   0.184E+01    0.205E+00
DAV:   2    -0.952146218468E+02   -0.17074E+00   -0.17862E+00  7152   0.476E+00    0.115E+00
DAV:   3    -0.952561533781E+02   -0.41532E-01   -0.24865E-01  7760   0.210E+00    0.215E+00
DAV:   4    -0.952204525986E+02    0.35701E-01   -0.23018E-01  7032   0.106E+00    0.762E-01
DAV:   5    -0.952193770764E+02    0.10755E-02   -0.11153E-01  7264   0.140E+00    0.451E-01
DAV:   6    -0.952150352366E+02    0.43418E-02   -0.43295E-02  7096   0.924E-01    0.280E-01
DAV:   7    -0.952132919865E+02    0.17433E-02   -0.64213E-03  8096   0.350E-01    0.862E-02
DAV:   8    -0.952132853198E+02    0.66666E-05   -0.72394E-04  6984   0.106E-01    0.384E-02
DAV:   9    -0.952132816756E+02    0.36443E-05   -0.96480E-05  6544   0.491E-02
  11 F= -.98202968E+02 E0= -.98202225E+02  d E =-.233072E+00
       N       E                     dE             d eps       ncg     rms          rms(c)
DAV:   1    -0.945486939983E+02    0.66459E+00   -0.18899E+02  6144   0.400E+01    0.365E+00
DAV:   2    -0.953636714958E+02   -0.81498E+00   -0.85207E+00  6952   0.103E+01    0.189E+00
DAV:   3    -0.954296972098E+02   -0.66026E-01   -0.66071E-01  7576   0.415E+00    0.265E+00
DAV:   4    -0.953897441205E+02    0.39953E-01   -0.43113E-01  7168   0.184E+00    0.145E+00
DAV:   5    -0.953933827703E+02   -0.36386E-02   -0.30469E-01  8968   0.182E+00    0.104E+00
DAV:   6    -0.953780128267E+02    0.15370E-01   -0.16962E-01  7016   0.181E+00    0.587E-01
DAV:   7    -0.953704008046E+02    0.76120E-02   -0.29164E-02  7648   0.773E-01    0.169E-01
DAV:   8    -0.953702689488E+02    0.13186E-03   -0.28116E-03  7528   0.252E-01    0.532E-02
DAV:   9    -0.953702633693E+02    0.55796E-05   -0.48009E-04  7192   0.104E-01    0.319E-02
DAV:  10    -0.953702716133E+02   -0.82441E-05   -0.73423E-05  6440   0.590E-02
  12 F= -.98366415E+02 E0= -.98365962E+02  d E =-.396519E+00
       N       E                     dE             d eps       ncg     rms          rms(c)
DAV:   1    -0.953139757601E+02    0.56288E-01   -0.31762E+01  6064   0.169E+01    0.147E+00
DAV:   2    -0.954397157629E+02   -0.12574E+00   -0.13364E+00  6896   0.393E+00    0.103E+00
DAV:   3    -0.954713711780E+02   -0.31655E-01   -0.22352E-01  8160   0.155E+00    0.182E+00
DAV:   4    -0.954390630122E+02    0.32308E-01   -0.16498E-01  7824   0.999E-01    0.528E-01
DAV:   5    -0.954419560708E+02   -0.28931E-02   -0.50679E-02  7728   0.913E-01    0.317E-01
DAV:   6    -0.954379598816E+02    0.39962E-02   -0.32419E-02  7384   0.757E-01    0.196E-01
DAV:   7    -0.954373114356E+02    0.64845E-03   -0.43034E-03  7288   0.277E-01    0.863E-02
DAV:   8    -0.954372589911E+02    0.52444E-04   -0.59389E-04  7160   0.116E-01    0.306E-02
DAV:   9    -0.954372802554E+02   -0.21264E-04   -0.10472E-04  6200   0.391E-02    0.177E-02
DAV:  10    -0.954373083687E+02   -0.28113E-04   -0.23469E-05  5248   0.247E-02    0.965E-03
DAV:  11    -0.954373410132E+02   -0.32644E-04   -0.75804E-06  4152   0.170E-02    0.416E-03
DAV:  12    -0.954373752472E+02   -0.34234E-04   -0.45712E-06  4224   0.968E-03    0.271E-03
DAV:  13    -0.954374175857E+02   -0.42339E-04   -0.47770E-06  4416   0.824E-03    0.250E-03
DAV:  14    -0.954374822649E+02   -0.64679E-04   -0.97314E-06  4472   0.807E-03    0.137E-03
DAV:  15    -0.954375058170E+02   -0.23552E-04   -0.26329E-06  4376   0.659E-03    0.812E-04
DAV:  16    -0.954375168147E+02   -0.10998E-04   -0.10415E-06  3840   0.530E-03    0.471E-04
DAV:  17    -0.954375213837E+02   -0.45689E-05   -0.65771E-07  3800   0.379E-03
  13 F= -.98440524E+02 E0= -.98440170E+02  d E =-.741085E-01
       N       E                     dE             d eps       ncg     rms          rms(c)
DAV:   1    -0.954392222539E+02   -0.17054E-02   -0.12221E+00  6064   0.326E+00    0.274E-01
DAV:   2    -0.954438994608E+02   -0.46772E-02   -0.48639E-02  6696   0.781E-01    0.240E-01
DAV:   3    -0.954448216471E+02   -0.92219E-03   -0.10674E-02  8360   0.292E-01    0.327E-01
DAV:   4    -0.954436351883E+02    0.11865E-02   -0.46916E-03  7096   0.204E-01    0.973E-02
DAV:   5    -0.954437999853E+02   -0.16480E-03   -0.19927E-03  6616   0.177E-01    0.655E-02
DAV:   6    -0.954436062593E+02    0.19373E-03   -0.11925E-03  6704   0.141E-01    0.313E-02
DAV:   7    -0.954435928164E+02    0.13443E-04   -0.11726E-04  6152   0.440E-02    0.140E-02
DAV:   8    -0.954435912161E+02    0.16003E-05   -0.12333E-05  4288   0.176E-02
  14 F= -.98445198E+02 E0= -.98444827E+02  d E =-.787824E-01
       N       E                     dE             d eps       ncg     rms          rms(c)
DAV:   1    -0.954756272620E+02   -0.32034E-01   -0.20596E+01  5872   0.145E+01    0.111E+00
DAV:   2    -0.955834278895E+02   -0.10780E+00   -0.11170E+00  6448   0.346E+00    0.100E+00
DAV:   3    -0.955989966296E+02   -0.15569E-01   -0.15917E-01  7848   0.125E+00    0.125E+00
DAV:   4    -0.955843134509E+02    0.14683E-01   -0.79797E-02  7280   0.830E-01    0.459E-01
DAV:   5    -0.955851443203E+02   -0.83087E-03   -0.15057E-02  7376   0.487E-01    0.178E-01
DAV:   6    -0.955841392601E+02    0.10051E-02   -0.11733E-02  7288   0.462E-01    0.131E-01
DAV:   7    -0.955838255022E+02    0.31376E-03   -0.15094E-03  7216   0.166E-01    0.437E-02
DAV:   8    -0.955838306045E+02   -0.51023E-05   -0.21762E-04  7320   0.529E-02    0.242E-02
DAV:   9    -0.955838221288E+02    0.84757E-05   -0.44727E-05  5552   0.322E-02
  15 F= -.98593214E+02 E0= -.98592838E+02  d E =-.148016E+00
       N       E                     dE             d eps       ncg     rms          rms(c)
DAV:   1    -0.947257605697E+02    0.85807E+00   -0.19824E+02  6088   0.477E+01    0.329E+00
DAV:   2    -0.957262257505E+02   -0.10005E+01   -0.10582E+01  6008   0.110E+01    0.209E+00
DAV:   3    -0.958139139696E+02   -0.87688E-01   -0.82720E-01  8456   0.360E+00    0.184E+00
DAV:   4    -0.958518769866E+02   -0.37963E-01   -0.59329E-01  7496   0.218E+00    0.217E+00
DAV:   5    -0.957909516350E+02    0.60925E-01   -0.17888E-01  8096   0.172E+00    0.510E-01
DAV:   6    -0.957951863455E+02   -0.42347E-02   -0.55840E-02  7368   0.109E+00    0.475E-01
DAV:   7    -0.957898172567E+02    0.53691E-02   -0.22763E-02  7640   0.760E-01    0.220E-01
DAV:   8    -0.957898734020E+02   -0.56145E-04   -0.20533E-03  7496   0.209E-01    0.178E-01
DAV:   9    -0.957897264028E+02    0.14700E-03   -0.85897E-04  6920   0.175E-01    0.420E-02
DAV:  10    -0.957897238679E+02    0.25349E-05   -0.33416E-04  6968   0.105E-01    0.335E-02
DAV:  11    -0.957897479060E+02   -0.24038E-04   -0.73567E-05  6760   0.481E-02    0.195E-02
DAV:  12    -0.957897957591E+02   -0.47853E-04   -0.14332E-05  4664   0.175E-02    0.100E-02
DAV:  13    -0.957899124863E+02   -0.11673E-03   -0.27409E-05  4848   0.169E-02    0.742E-03
DAV:  14    -0.957899805469E+02   -0.68061E-04   -0.68958E-06  4728   0.137E-02    0.460E-03
DAV:  15    -0.957900913125E+02   -0.11077E-03   -0.11386E-05  4520   0.104E-02    0.739E-03
DAV:  16    -0.957901567027E+02   -0.65390E-04   -0.86437E-06  4656   0.848E-03    0.389E-03
DAV:  17    -0.957901792391E+02   -0.22536E-04   -0.19867E-06  4136   0.936E-03    0.237E-03
DAV:  18    -0.957901999782E+02   -0.20739E-04   -0.22087E-06  4208   0.571E-03    0.277E-03
DAV:  19    -0.957902051157E+02   -0.51375E-05   -0.70687E-07  3864   0.403E-03
  16 F= -.98825168E+02 E0= -.98824823E+02  d E =-.379971E+00
       N       E                     dE             d eps       ncg     rms          rms(c)
DAV:   1    -0.957526939634E+02    0.37506E-01   -0.75700E+00  5896   0.868E+00    0.595E-01
DAV:   2    -0.957919555046E+02   -0.39262E-01   -0.40210E-01  6400   0.209E+00    0.610E-01
DAV:   3    -0.957947689194E+02   -0.28134E-02   -0.57289E-02  7816   0.782E-01    0.609E-01
DAV:   4    -0.957911228899E+02    0.36460E-02   -0.18212E-02  7520   0.442E-01    0.237E-01
DAV:   5    -0.957912883094E+02   -0.16542E-03   -0.27768E-03  6992   0.193E-01    0.872E-02
DAV:   6    -0.957912500972E+02    0.38212E-04   -0.26971E-03  6944   0.214E-01    0.761E-02
DAV:   7    -0.957911177790E+02    0.13232E-03   -0.58123E-04  6560   0.105E-01    0.198E-02
DAV:   8    -0.957911200217E+02   -0.22426E-05   -0.71971E-05  6640   0.313E-02
  17 F= -.98831472E+02 E0= -.98831134E+02  d E =-.386275E+00
       N       E                     dE             d eps       ncg     rms          rms(c)
DAV:   1    -0.955165643946E+02    0.27455E+00   -0.56092E+01  5968   0.241E+01    0.135E+00
DAV:   2    -0.958077207764E+02   -0.29116E+00   -0.31058E+00  6312   0.574E+00    0.104E+00
DAV:   3    -0.958466684239E+02   -0.38948E-01   -0.37512E-01  8016   0.210E+00    0.160E+00
DAV:   4    -0.958153430483E+02    0.31325E-01   -0.14442E-01  7288   0.109E+00    0.456E-01
DAV:   5    -0.958152601860E+02    0.82862E-04   -0.12547E-02  7248   0.506E-01    0.235E-01
DAV:   6    -0.958159054220E+02   -0.64524E-03   -0.11132E-02  8136   0.428E-01    0.193E-01
DAV:   7    -0.958148206692E+02    0.10848E-02   -0.48609E-03  7672   0.300E-01    0.486E-02
DAV:   8    -0.958147943778E+02    0.26291E-04   -0.61599E-04  7472   0.112E-01    0.338E-02
DAV:   9    -0.958147907582E+02    0.36196E-05   -0.14137E-04  6832   0.529E-02    0.217E-02
DAV:  10    -0.958148061699E+02   -0.15412E-04   -0.31439E-05  5208   0.236E-02    0.111E-02
DAV:  11    -0.958148479515E+02   -0.41782E-04   -0.17136E-05  4960   0.170E-02    0.519E-03
DAV:  12    -0.958149087877E+02   -0.60836E-04   -0.63235E-06  4456   0.137E-02    0.416E-03
DAV:  13    -0.958150067363E+02   -0.97949E-04   -0.16066E-05  4784   0.109E-02    0.252E-03
DAV:  14    -0.958150516900E+02   -0.44954E-04   -0.47222E-06  4640   0.653E-03    0.133E-03
DAV:  15    -0.958150812535E+02   -0.29564E-04   -0.20848E-06  4176   0.577E-03    0.117E-03
DAV:  16    -0.958150994737E+02   -0.18220E-04   -0.15429E-06  4240   0.466E-03    0.870E-04
DAV:  17    -0.958151119401E+02   -0.12466E-04   -0.12326E-06  4056   0.331E-03    0.482E-04
DAV:  18    -0.958151172547E+02   -0.53147E-05   -0.71111E-07  3904   0.355E-03
  18 F= -.98864328E+02 E0= -.98863854E+02  d E =-.328564E-01
       N       E                     dE             d eps       ncg     rms          rms(c)
DAV:   1    -0.958003144128E+02    0.14798E-01   -0.79373E+00  5944   0.888E+00    0.502E-01
DAV:   2    -0.958412671315E+02   -0.40953E-01   -0.40132E-01  6376   0.203E+00    0.772E-01
DAV:   3    -0.958374775520E+02    0.37896E-02   -0.61738E-02  7776   0.813E-01    0.367E-01
DAV:   4    -0.958360565833E+02    0.14210E-02   -0.96747E-03  7320   0.315E-01    0.140E-01
DAV:   5    -0.958364830391E+02   -0.42646E-03   -0.42507E-03  7064   0.267E-01    0.140E-01
DAV:   6    -0.958359510301E+02    0.53201E-03   -0.24912E-03  7088   0.209E-01    0.334E-02
DAV:   7    -0.958359680395E+02   -0.17009E-04   -0.26578E-04  6984   0.703E-02    0.212E-02
DAV:   8    -0.958359663500E+02    0.16895E-05   -0.58141E-05  5864   0.389E-02
  19 F= -.98881808E+02 E0= -.98881393E+02  d E =-.503357E-01
       N       E                     dE             d eps       ncg     rms          rms(c)
DAV:   1    -0.957091396384E+02    0.12683E+00   -0.37182E+01  5944   0.205E+01    0.104E+00
DAV:   2    -0.959167136433E+02   -0.20757E+00   -0.21779E+00  6184   0.503E+00    0.864E-01
DAV:   3    -0.959393111438E+02   -0.22598E-01   -0.23428E-01  8072   0.180E+00    0.116E+00
DAV:   4    -0.959240550274E+02    0.15256E-01   -0.75447E-02  7432   0.806E-01    0.368E-01
DAV:   5    -0.959253617648E+02   -0.13067E-02   -0.16948E-02  7704   0.815E-01    0.298E-01
DAV:   6    -0.959237251428E+02    0.16366E-02   -0.11237E-02  8080   0.453E-01    0.107E-01
DAV:   7    -0.959236122196E+02    0.11292E-03   -0.16301E-03  7792   0.207E-01    0.530E-02
DAV:   8    -0.959235780440E+02    0.34176E-04   -0.37036E-04  7592   0.129E-01    0.370E-02
DAV:   9    -0.959235631765E+02    0.14868E-04   -0.74995E-05  6256   0.872E-02    0.173E-02
DAV:  10    -0.959235656355E+02   -0.24590E-05   -0.44529E-05  5920   0.310E-02
  20 F= -.98970815E+02 E0= -.98970177E+02  d E =-.890075E-01
       N       E                     dE             d eps       ncg     rms          rms(c)
DAV:   1    -0.958268294502E+02    0.96734E-01   -0.20631E+01  5920   0.152E+01    0.782E-01
DAV:   2    -0.959415104150E+02   -0.11468E+00   -0.11955E+00  6224   0.368E+00    0.757E-01
DAV:   3    -0.959505679562E+02   -0.90575E-02   -0.13361E-01  7904   0.133E+00    0.827E-01
DAV:   4    -0.959425880026E+02    0.79800E-02   -0.38587E-02  7024   0.636E-01    0.262E-01
DAV:   5    -0.959436203934E+02   -0.10324E-02   -0.11141E-02  7584   0.573E-01    0.236E-01
DAV:   6    -0.959423651474E+02    0.12552E-02   -0.68862E-03  7616   0.342E-01    0.723E-02
DAV:   7    -0.959423605291E+02    0.46184E-05   -0.84196E-04  7512   0.135E-01    0.403E-02
DAV:   8    -0.959423449840E+02    0.15545E-04   -0.16791E-04  7040   0.840E-02    0.282E-02
DAV:   9    -0.959423573538E+02   -0.12370E-04   -0.39239E-05  5264   0.503E-02    0.131E-02
DAV:  10    -0.959423861891E+02   -0.28835E-04   -0.26348E-05  5432   0.250E-02    0.559E-03
DAV:  11    -0.959424065478E+02   -0.20359E-04   -0.40306E-06  4040   0.148E-02    0.375E-03
DAV:  12    -0.959424685050E+02   -0.61957E-04   -0.10925E-05  4736   0.161E-02    0.257E-03
DAV:  13    -0.959425028673E+02   -0.34362E-04   -0.38827E-06  4504   0.111E-02    0.196E-03
DAV:  14    -0.959425283411E+02   -0.25474E-04   -0.20304E-06  4104   0.598E-03    0.153E-03
DAV:  15    -0.959425519565E+02   -0.23615E-04   -0.29996E-06  4304   0.561E-03    0.720E-04
DAV:  16    -0.959425605255E+02   -0.85689E-05   -0.10513E-06  4048   0.425E-03
  21 F= -.98991037E+02 E0= -.98990163E+02  d E =-.109229E+00
       N       E                     dE             d eps       ncg     rms          rms(c)
DAV:   1    -0.957409309434E+02    0.20162E+00   -0.51182E+01  5904   0.237E+01    0.146E+00
DAV:   2    -0.960064528465E+02   -0.26552E+00   -0.28862E+00  6064   0.583E+00    0.949E-01
DAV:   3    -0.960433531001E+02   -0.36900E-01   -0.32788E-01  8528   0.220E+00    0.156E+00
DAV:   4    -0.960154894353E+02    0.27864E-01   -0.12497E-01  7256   0.101E+00    0.476E-01
DAV:   5    -0.960172201870E+02   -0.17308E-02   -0.25949E-02  8152   0.924E-01    0.374E-01
DAV:   6    -0.960151109595E+02    0.21092E-02   -0.17627E-02  7624   0.530E-01    0.202E-01
DAV:   7    -0.960149456458E+02    0.16531E-03   -0.30617E-03  7880   0.256E-01    0.966E-02
DAV:   8    -0.960149488582E+02   -0.32124E-05   -0.71384E-04  7064   0.166E-01    0.732E-02
DAV:   9    -0.960149236568E+02    0.25201E-04   -0.12661E-04  6720   0.105E-01    0.293E-02
DAV:  10    -0.960149333184E+02   -0.96616E-05   -0.77190E-05  6624   0.386E-02
  22 F= -.99061320E+02 E0= -.99060039E+02  d E =-.702829E-01
       N       E                     dE             d eps       ncg     rms          rms(c)
DAV:   1    -0.960148472887E+02    0.76368E-04   -0.40301E-02  5960   0.660E-01    0.404E-02
DAV:   2    -0.960150592735E+02   -0.21198E-03   -0.22395E-03  6560   0.163E-01    0.340E-02
DAV:   3    -0.960150864196E+02   -0.27146E-04   -0.29294E-04  6888   0.589E-02    0.445E-02
DAV:   4    -0.960150628958E+02    0.23524E-04   -0.93679E-05  4992   0.355E-02    0.138E-02
DAV:   5    -0.960150709084E+02   -0.80126E-05   -0.21880E-05  4248   0.273E-02
  23 F= -.99061404E+02 E0= -.99060125E+02  d E =-.703664E-01
       N       E                     dE             d eps       ncg     rms          rms(c)
DAV:   1    -0.959346781542E+02    0.80385E-01   -0.27520E+01  5856   0.171E+01    0.110E+00
DAV:   2    -0.960718382076E+02   -0.13716E+00   -0.14770E+00  6520   0.413E+00    0.757E-01
DAV:   3    -0.960893340274E+02   -0.17496E-01   -0.15943E-01  7984   0.146E+00    0.114E+00
DAV:   4    -0.960745551557E+02    0.14779E-01   -0.62559E-02  7200   0.715E-01    0.357E-01
DAV:   5    -0.960761941287E+02   -0.16390E-02   -0.19050E-02  7640   0.733E-01    0.296E-01
DAV:   6    -0.960743717402E+02    0.18224E-02   -0.11957E-02  8048   0.406E-01    0.133E-01
DAV:   7    -0.960744346651E+02   -0.62925E-04   -0.14243E-03  7160   0.158E-01    0.731E-02
DAV:   8    -0.960744402902E+02   -0.56251E-05   -0.31028E-04  7304   0.105E-01    0.523E-02
DAV:   9    -0.960744338813E+02    0.64089E-05   -0.54587E-05  5960   0.563E-02
  24 F= -.99118022E+02 E0= -.99116512E+02  d E =-.566187E-01
       N       E                     dE             d eps       ncg     rms          rms(c)
DAV:   1    -0.960489325993E+02    0.25508E-01   -0.71741E+00  5888   0.868E+00    0.546E-01
DAV:   2    -0.960841952883E+02   -0.35263E-01   -0.37625E-01  6352   0.207E+00    0.430E-01
DAV:   3    -0.960883800872E+02   -0.41848E-02   -0.45830E-02  7616   0.756E-01    0.579E-01
DAV:   4    -0.960843540718E+02    0.40260E-02   -0.15999E-02  7312   0.404E-01    0.177E-01
DAV:   5    -0.960848115759E+02   -0.45750E-03   -0.50618E-03  7528   0.364E-01    0.151E-01
DAV:   6    -0.960843214189E+02    0.49016E-03   -0.30476E-03  6704   0.199E-01    0.610E-02
DAV:   7    -0.960843522774E+02   -0.30858E-04   -0.36435E-04  6536   0.673E-02    0.326E-02
DAV:   8    -0.960843533629E+02   -0.10855E-05   -0.64929E-05  6056   0.499E-02
  25 F= -.99126620E+02 E0= -.99125048E+02  d E =-.652163E-01
       N       E                     dE             d eps       ncg     rms          rms(c)
DAV:   1    -0.959955367856E+02    0.88815E-01   -0.23541E+01  5888   0.151E+01    0.107E+00
DAV:   2    -0.960968999088E+02   -0.10136E+00   -0.11185E+00  6728   0.354E+00    0.667E-01
DAV:   3    -0.961102500021E+02   -0.13350E-01   -0.11574E-01  8280   0.120E+00    0.103E+00
DAV:   4    -0.960982761431E+02    0.11974E-01   -0.53666E-02  7296   0.649E-01    0.341E-01
DAV:   5    -0.960998538704E+02   -0.15777E-02   -0.20178E-02  7592   0.719E-01    0.271E-01
DAV:   6    -0.960978523235E+02    0.20015E-02   -0.13241E-02  7488   0.454E-01    0.110E-01
DAV:   7    -0.960979192249E+02   -0.66901E-04   -0.12556E-03  7632   0.141E-01    0.548E-02
DAV:   8    -0.960979267586E+02   -0.75337E-05   -0.26995E-04  7104   0.908E-02    0.374E-02
DAV:   9    -0.960979205834E+02    0.61752E-05   -0.43504E-05  5840   0.460E-02
  26 F= -.99137111E+02 E0= -.99135471E+02  d E =-.104907E-01
       N       E                     dE             d eps       ncg     rms          rms(c)
DAV:   1    -0.960895152819E+02    0.84115E-02   -0.41474E+00  5872   0.634E+00    0.452E-01
DAV:   2    -0.961078286965E+02   -0.18313E-01   -0.19511E-01  6480   0.147E+00    0.377E-01
DAV:   3    -0.961100479855E+02   -0.22193E-02   -0.30664E-02  7872   0.624E-01    0.472E-01
DAV:   4    -0.961071713250E+02    0.28767E-02   -0.10487E-02  7600   0.352E-01    0.140E-01
DAV:   5    -0.961075738734E+02   -0.40255E-03   -0.38551E-03  6832   0.324E-01    0.119E-01
DAV:   6    -0.961071659374E+02    0.40794E-03   -0.24599E-03  6416   0.214E-01    0.406E-02
DAV:   7    -0.961071886824E+02   -0.22745E-04   -0.24347E-04  6528   0.702E-02    0.184E-02
DAV:   8    -0.961071865802E+02    0.21021E-05   -0.49569E-05  5752   0.464E-02
  27 F= -.99147644E+02 E0= -.99146027E+02  d E =-.210238E-01
       N       E                     dE             d eps       ncg     rms          rms(c)
DAV:   1    -0.961103543754E+02   -0.31657E-02   -0.26891E+00  5864   0.489E+00    0.407E-01
DAV:   2    -0.961199223127E+02   -0.95679E-02   -0.10461E-01  6352   0.106E+00    0.213E-01
DAV:   3    -0.961202389977E+02   -0.31669E-03   -0.55273E-03  8120   0.342E-01    0.119E-01
DAV:   4    -0.961206818537E+02   -0.44286E-03   -0.20164E-03  7232   0.237E-01    0.177E-01
DAV:   5    -0.961203444099E+02    0.33744E-03   -0.21701E-03  7760   0.146E-01    0.706E-02
DAV:   6    -0.961202873663E+02    0.57044E-04   -0.46449E-04  6264   0.111E-01    0.205E-02
DAV:   7    -0.961202800139E+02    0.73524E-05   -0.12128E-04  5320   0.767E-02    0.129E-02
DAV:   8    -0.961202746580E+02    0.53559E-05   -0.33026E-05  4352   0.290E-02
  28 F= -.99158874E+02 E0= -.99157165E+02  d E =-.112301E-01
       N       E                     dE             d eps       ncg     rms          rms(c)
DAV:   1    -0.960783657777E+02    0.41914E-01   -0.14694E+01  5856   0.114E+01    0.899E-01
DAV:   2    -0.961314277890E+02   -0.53062E-01   -0.57217E-01  6384   0.252E+00    0.497E-01
DAV:   3    -0.961341737472E+02   -0.27460E-02   -0.36161E-02  8048   0.972E-01    0.374E-01
DAV:   4    -0.961372453525E+02   -0.30716E-02   -0.28398E-02  7448   0.665E-01    0.559E-01
DAV:   5    -0.961331635718E+02    0.40818E-02   -0.15758E-02  7064   0.510E-01    0.110E-01
DAV:   6    -0.961332382632E+02   -0.74691E-04   -0.28919E-03  7320   0.284E-01    0.511E-02
DAV:   7    -0.961332148418E+02    0.23421E-04   -0.10705E-03  6888   0.174E-01    0.412E-02
DAV:   8    -0.961331785396E+02    0.36302E-04   -0.24111E-04  7024   0.717E-02    0.167E-02
DAV:   9    -0.961332010296E+02   -0.22490E-04   -0.36256E-05  5456   0.380E-02    0.740E-03
DAV:  10    -0.961332180969E+02   -0.17067E-04   -0.85855E-06  4624   0.220E-02    0.381E-03
DAV:  11    -0.961332337091E+02   -0.15612E-04   -0.40295E-06  4104   0.120E-02    0.253E-03
DAV:  12    -0.961332487002E+02   -0.14991E-04   -0.30398E-06  4312   0.928E-03    0.153E-03
DAV:  13    -0.961332658786E+02   -0.17178E-04   -0.35461E-06  4336   0.626E-03    0.114E-03
DAV:  14    -0.961332789831E+02   -0.13105E-04   -0.23338E-06  4232   0.666E-03    0.720E-04
DAV:  15    -0.961332879777E+02   -0.89946E-05   -0.19976E-06  4152   0.526E-03
  29 F= -.99167700E+02 E0= -.99165848E+02  d E =-.200560E-01
       N       E                     dE             d eps       ncg     rms          rms(c)
DAV:   1    -0.961261620209E+02    0.71170E-02   -0.32409E+00  5936   0.614E+00    0.351E-01
DAV:   2    -0.961433543122E+02   -0.17192E-01   -0.18264E-01  6368   0.141E+00    0.206E-01
DAV:   3    -0.961450660723E+02   -0.17118E-02   -0.15735E-02  8080   0.548E-01    0.295E-01
DAV:   4    -0.961440014385E+02    0.10646E-02   -0.54640E-03  7048   0.273E-01    0.119E-01
DAV:   5    -0.961439974442E+02    0.39943E-05   -0.94475E-04  6880   0.171E-01    0.636E-02
DAV:   6    -0.961440265849E+02   -0.29141E-04   -0.96287E-04  7176   0.152E-01    0.392E-02
DAV:   7    -0.961439829721E+02    0.43613E-04   -0.37554E-04  6608   0.102E-01    0.194E-02
DAV:   8    -0.961439781611E+02    0.48110E-05   -0.42135E-05  5680   0.321E-02
  30 F= -.99175672E+02 E0= -.99173776E+02  d E =-.797229E-02
       N       E                     dE             d eps       ncg     rms          rms(c)
DAV:   1    -0.961424516054E+02    0.15314E-02   -0.68063E-01  5928   0.282E+00    0.163E-01
DAV:   2    -0.961460908241E+02   -0.36392E-02   -0.38683E-02  6328   0.636E-01    0.851E-02
DAV:   3    -0.961463300574E+02   -0.23923E-03   -0.25873E-03  8016   0.224E-01    0.984E-02
DAV:   4    -0.961462563056E+02    0.73752E-04   -0.86127E-04  6880   0.116E-01    0.652E-02
DAV:   5    -0.961462237255E+02    0.32580E-04   -0.17268E-04  5608   0.690E-02    0.259E-02
DAV:   6    -0.961462303534E+02   -0.66279E-05   -0.76612E-05  6424   0.450E-02
  31 F= -.99176700E+02 E0= -.99174788E+02  d E =-.900003E-02
       N       E                     dE             d eps       ncg     rms          rms(c)
DAV:   1    -0.961472529217E+02   -0.10292E-02   -0.14450E+00  5952   0.437E+00    0.208E-01
DAV:   2    -0.961566066706E+02   -0.93537E-02   -0.97983E-02  6264   0.101E+00    0.137E-01
DAV:   3    -0.961574370426E+02   -0.83037E-03   -0.82768E-03  8232   0.399E-01    0.192E-01
DAV:   4    -0.961569498070E+02    0.48724E-03   -0.22979E-03  7248   0.181E-01    0.752E-02
DAV:   5    -0.961569435331E+02    0.62739E-05   -0.21677E-04  6920   0.931E-02    0.398E-02
DAV:   6    -0.961569578768E+02   -0.14344E-04   -0.11571E-04  6336   0.580E-02    0.167E-02
DAV:   7    -0.961569505417E+02    0.73351E-05   -0.57352E-05  5312   0.476E-02
  32 F= -.99185394E+02 E0= -.99183475E+02  d E =-.869388E-02
       N       E                     dE             d eps       ncg     rms          rms(c)
DAV:   1    -0.960917522530E+02    0.65206E-01   -0.13046E+01  5968   0.131E+01    0.630E-01
DAV:   2    -0.961778777856E+02   -0.86126E-01   -0.89259E-01  6400   0.313E+00    0.516E-01
DAV:   3    -0.961856004371E+02   -0.77227E-02   -0.90383E-02  8160   0.126E+00    0.642E-01
DAV:   4    -0.961800949374E+02    0.55055E-02   -0.22926E-02  7464   0.560E-01    0.218E-01
DAV:   5    -0.961803709003E+02   -0.27596E-03   -0.42126E-03  7480   0.328E-01    0.158E-01
DAV:   6    -0.961801829384E+02    0.18796E-03   -0.38262E-03  7264   0.311E-01    0.827E-02
DAV:   7    -0.961801298160E+02    0.53122E-04   -0.88687E-04  7080   0.162E-01    0.323E-02
DAV:   8    -0.961801274081E+02    0.24078E-05   -0.15417E-04  7184   0.611E-02    0.217E-02
DAV:   9    -0.961801265099E+02    0.89822E-06   -0.18723E-05  4560   0.241E-02
  33 F= -.99202688E+02 E0= -.99200796E+02  d E =-.259878E-01
       N       E                     dE             d eps       ncg     rms          rms(c)
DAV:   1    -0.958150273424E+02    0.36510E+00   -0.52819E+01  5984   0.264E+01    0.130E+00
DAV:   2    -0.961847235163E+02   -0.36970E+00   -0.37363E+00  6376   0.652E+00    0.140E+00
DAV:   3    -0.962061960672E+02   -0.21473E-01   -0.47723E-01  7704   0.266E+00    0.126E+00
DAV:   4    -0.961856136622E+02    0.20582E-01   -0.94226E-02  7488   0.127E+00    0.443E-01
DAV:   5    -0.961874652294E+02   -0.18516E-02   -0.22555E-02  7648   0.689E-01    0.374E-01
DAV:   6    -0.961855792603E+02    0.18860E-02   -0.15741E-02  7208   0.693E-01    0.152E-01
DAV:   7    -0.961856837623E+02   -0.10450E-03   -0.28118E-03  7696   0.263E-01    0.656E-02
DAV:   8    -0.961856654081E+02    0.18354E-04   -0.53815E-04  7456   0.116E-01    0.427E-02
DAV:   9    -0.961856623645E+02    0.30436E-05   -0.92544E-05  7288   0.506E-02
  34 F= -.99197355E+02 E0= -.99195672E+02  d E =-.206553E-01
       N       E                     dE             d eps       ncg     rms          rms(c)
DAV:   1    -0.960538319969E+02    0.13183E+00   -0.19366E+01  5976   0.159E+01    0.777E-01
DAV:   2    -0.961839266213E+02   -0.13009E+00   -0.13584E+00  6264   0.368E+00    0.484E-01
DAV:   3    -0.961946137811E+02   -0.10687E-01   -0.10554E-01  8216   0.133E+00    0.707E-01
DAV:   4    -0.961888338882E+02    0.57799E-02   -0.25136E-02  7760   0.566E-01    0.274E-01
DAV:   5    -0.961891576110E+02   -0.32372E-03   -0.50921E-03  7464   0.290E-01    0.197E-01
DAV:   6    -0.961890136482E+02    0.14396E-03   -0.51701E-03  7112   0.327E-01    0.129E-01
DAV:   7    -0.961889031535E+02    0.11049E-03   -0.18154E-03  6992   0.202E-01    0.521E-02
DAV:   8    -0.961888817458E+02    0.21408E-04   -0.37825E-04  7208   0.864E-02    0.313E-02
DAV:   9    -0.961888786270E+02    0.31188E-05   -0.49352E-05  6064   0.426E-02
  35 F= -.99207050E+02 E0= -.99205230E+02  d E =-.303499E-01
       N       E                     dE             d eps       ncg     rms          rms(c)
DAV:   1    -0.961791590380E+02    0.97227E-02   -0.29762E+00  5960   0.622E+00    0.290E-01
DAV:   2    -0.961983093788E+02   -0.19150E-01   -0.20053E-01  6256   0.142E+00    0.201E-01
DAV:   3    -0.961998639781E+02   -0.15546E-02   -0.15592E-02  8216   0.490E-01    0.267E-01
DAV:   4    -0.961990034049E+02    0.86057E-03   -0.42840E-03  7520   0.235E-01    0.112E-01
DAV:   5    -0.961989890048E+02    0.14400E-04   -0.71081E-04  6776   0.137E-01    0.605E-02
DAV:   6    -0.961990233878E+02   -0.34383E-04   -0.85385E-04  6712   0.136E-01    0.451E-02
DAV:   7    -0.961989693214E+02    0.54066E-04   -0.31910E-04  6368   0.890E-02    0.147E-02
DAV:   8    -0.961989688102E+02    0.51119E-06   -0.38812E-05  6000   0.265E-02
  36 F= -.99214547E+02 E0= -.99212771E+02  d E =-.749770E-02
       N       E                     dE             d eps       ncg     rms          rms(c)
DAV:   1    -0.961866624789E+02    0.12307E-01   -0.25040E+00  5960   0.570E+00    0.269E-01
DAV:   2    -0.962028528388E+02   -0.16190E-01   -0.16988E-01  6248   0.129E+00    0.177E-01
DAV:   3    -0.962041071886E+02   -0.12543E-02   -0.12488E-02  8264   0.433E-01    0.234E-01
DAV:   4    -0.962034830828E+02    0.62411E-03   -0.34839E-03  7496   0.209E-01    0.106E-01
DAV:   5    -0.962034475563E+02    0.35527E-04   -0.56855E-04  6648   0.112E-01    0.537E-02
DAV:   6    -0.962034933968E+02   -0.45840E-04   -0.68054E-04  6744   0.120E-01    0.416E-02
DAV:   7    -0.962034402928E+02    0.53104E-04   -0.28801E-04  6352   0.819E-02    0.130E-02
DAV:   8    -0.962034411797E+02   -0.88688E-06   -0.31202E-05  5480   0.227E-02
  37 F= -.99216698E+02 E0= -.99214977E+02  d E =-.964866E-02
       N       E                     dE             d eps       ncg     rms          rms(c)
DAV:   1    -0.962047057795E+02   -0.12655E-02   -0.69153E-01  6000   0.277E+00    0.130E-01
DAV:   2    -0.962083633755E+02   -0.36576E-02   -0.38139E-02  6184   0.608E-01    0.103E-01
DAV:   3    -0.962086613162E+02   -0.29794E-03   -0.31308E-03  8304   0.190E-01    0.131E-01
DAV:   4    -0.962084539806E+02    0.20734E-03   -0.90824E-04  6344   0.988E-02    0.465E-02
DAV:   5    -0.962084768090E+02   -0.22828E-04   -0.32560E-04  6464   0.786E-02    0.358E-02
DAV:   6    -0.962084510441E+02    0.25765E-04   -0.22171E-04  5672   0.643E-02    0.147E-02
DAV:   7    -0.962084538719E+02   -0.28278E-05   -0.27916E-05  4896   0.231E-02
  38 F= -.99220653E+02 E0= -.99218958E+02  d E =-.395438E-02
       N       E                     dE             d eps       ncg     rms          rms(c)
DAV:   1    -0.961838148290E+02    0.24636E-01   -0.62359E+00  5984   0.833E+00    0.388E-01
DAV:   2    -0.962172738929E+02   -0.33459E-01   -0.34594E-01  6272   0.184E+00    0.348E-01
DAV:   3    -0.962196991351E+02   -0.24252E-02   -0.31066E-02  7824   0.601E-01    0.395E-01
DAV:   4    -0.962177930413E+02    0.19061E-02   -0.82994E-03  7472   0.323E-01    0.137E-01
DAV:   5    -0.962180200714E+02   -0.22703E-03   -0.30893E-03  7056   0.239E-01    0.112E-01
DAV:   6    -0.962177438967E+02    0.27617E-03   -0.19711E-03  6360   0.201E-01    0.410E-02
DAV:   7    -0.962177542186E+02   -0.10322E-04   -0.25176E-04  6856   0.652E-02    0.181E-02
DAV:   8    -0.962177550881E+02   -0.86953E-06   -0.33993E-05  5488   0.285E-02
  39 F= -.99226845E+02 E0= -.99225255E+02  d E =-.101469E-01
       N       E                     dE             d eps       ncg     rms          rms(c)
DAV:   1    -0.962192530164E+02   -0.14988E-02   -0.15410E+00  6032   0.340E+00    0.216E-01
DAV:   2    -0.962245052199E+02   -0.52522E-02   -0.54709E-02  6432   0.724E-01    0.209E-01
DAV:   3    -0.962247936144E+02   -0.28839E-03   -0.55413E-03  7816   0.240E-01    0.198E-01
DAV:   4    -0.962244437719E+02    0.34984E-03   -0.22474E-03  7192   0.145E-01    0.940E-02
DAV:   5    -0.962245876276E+02   -0.14386E-03   -0.20391E-03  6736   0.192E-01    0.857E-02
DAV:   6    -0.962243817992E+02    0.20583E-03   -0.97745E-04  6320   0.135E-01    0.197E-02
DAV:   7    -0.962244021914E+02   -0.20392E-04   -0.73809E-05  6264   0.306E-02    0.127E-02
DAV:   8    -0.962244040746E+02   -0.18831E-05   -0.75812E-06  4152   0.160E-02
  40 F= -.99232521E+02 E0= -.99230960E+02  d E =-.567569E-02
       N       E                     dE             d eps       ncg     rms          rms(c)
DAV:   1    -0.962225991681E+02    0.18030E-02   -0.13506E+00  6016   0.318E+00    0.201E-01
DAV:   2    -0.962271886297E+02   -0.45895E-02   -0.47845E-02  6408   0.676E-01    0.193E-01
DAV:   3    -0.962274358664E+02   -0.24724E-03   -0.46904E-03  7776   0.224E-01    0.184E-01
DAV:   4    -0.962271419807E+02    0.29389E-03   -0.19335E-03  7176   0.132E-01    0.894E-02
DAV:   5    -0.962272672036E+02   -0.12522E-03   -0.17909E-03  6608   0.180E-01    0.801E-02
DAV:   6    -0.962270845832E+02    0.18262E-03   -0.85360E-04  6000   0.126E-01    0.182E-02
DAV:   7    -0.962271005894E+02   -0.16006E-04   -0.64986E-05  6224   0.285E-02    0.116E-02
DAV:   8    -0.962271014609E+02   -0.87143E-06   -0.61161E-06  3952   0.145E-02
  41 F= -.99234324E+02 E0= -.99232799E+02  d E =-.747889E-02
       N       E                     dE             d eps       ncg     rms          rms(c)
DAV:   1    -0.962290875854E+02   -0.19870E-02   -0.59088E-01  6024   0.201E+00    0.132E-01
DAV:   2    -0.962308872835E+02   -0.17997E-02   -0.18511E-02  6448   0.426E-01    0.134E-01
DAV:   3    -0.962309634916E+02   -0.76208E-04   -0.19209E-03  7784   0.146E-01    0.119E-01
DAV:   4    -0.962308640976E+02    0.99394E-04   -0.77105E-04  6144   0.840E-02    0.620E-02
DAV:   5    -0.962309317190E+02   -0.67621E-04   -0.85183E-04  6392   0.125E-01    0.572E-02
DAV:   6    -0.962308436301E+02    0.88089E-04   -0.39549E-04  5752   0.859E-02    0.112E-02
DAV:   7    -0.962308516239E+02   -0.79937E-05   -0.26948E-05  5560   0.204E-02
  42 F= -.99237594E+02 E0= -.99236094E+02  d E =-.326972E-02
       N       E                     dE             d eps       ncg     rms          rms(c)
DAV:   1    -0.962220207136E+02    0.88229E-02   -0.53252E+00  6016   0.605E+00    0.390E-01
DAV:   2    -0.962384554270E+02   -0.16435E-01   -0.16834E-01  6344   0.128E+00    0.403E-01
DAV:   3    -0.962390744957E+02   -0.61907E-03   -0.18003E-02  7744   0.444E-01    0.351E-01
DAV:   4    -0.962381316885E+02    0.94281E-03   -0.66925E-03  7256   0.261E-01    0.175E-01
DAV:   5    -0.962386886835E+02   -0.55700E-03   -0.71295E-03  7216   0.360E-01    0.165E-01
DAV:   6    -0.962379117509E+02    0.77693E-03   -0.33398E-03  6024   0.266E-01    0.302E-02
DAV:   7    -0.962379423686E+02   -0.30618E-04   -0.22411E-04  6696   0.545E-02    0.209E-02
DAV:   8    -0.962379405349E+02    0.18337E-05   -0.21550E-05  5184   0.253E-02
  43 F= -.99243283E+02 E0= -.99241871E+02  d E =-.895925E-02
       N       E                     dE             d eps       ncg     rms          rms(c)
DAV:   1    -0.962361662958E+02    0.17761E-02   -0.98389E-01  6016   0.260E+00    0.168E-01
DAV:   2    -0.962391651721E+02   -0.29989E-02   -0.30926E-02  6424   0.550E-01    0.170E-01
DAV:   3    -0.962392998088E+02   -0.13464E-03   -0.32249E-03  7832   0.192E-01    0.152E-01
DAV:   4    -0.962391334122E+02    0.16640E-03   -0.12487E-03  6632   0.107E-01    0.795E-02
DAV:   5    -0.962392404331E+02   -0.10702E-03   -0.13598E-03  6480   0.159E-01    0.727E-02
DAV:   6    -0.962390968731E+02    0.14356E-03   -0.63553E-04  5800   0.112E-01    0.154E-02
DAV:   7    -0.962391065394E+02   -0.96663E-05   -0.46871E-05  6096   0.271E-02
  44 F= -.99243867E+02 E0= -.99242499E+02  d E =-.954248E-02
       N       E                     dE             d eps       ncg     rms          rms(c)
DAV:   1    -0.962412366191E+02   -0.21397E-02   -0.30782E-01  6088   0.145E+00    0.993E-02
DAV:   2    -0.962419570067E+02   -0.72039E-03   -0.80553E-03  6744   0.310E-01    0.863E-02
DAV:   3    -0.962420502630E+02   -0.93256E-04   -0.12338E-03  7912   0.109E-01    0.101E-01
DAV:   4    -0.962419346157E+02    0.11565E-03   -0.57582E-04  6256   0.773E-02    0.322E-02
DAV:   5    -0.962419504379E+02   -0.15822E-04   -0.30416E-04  5680   0.747E-02    0.311E-02
DAV:   6    -0.962419276345E+02    0.22803E-04   -0.11407E-04  4840   0.480E-02    0.993E-03
DAV:   7    -0.962419321260E+02   -0.44915E-05   -0.77244E-06  3912   0.111E-02
  45 F= -.99246357E+02 E0= -.99245022E+02  d E =-.249022E-02
       N       E                     dE             d eps       ncg     rms          rms(c)
DAV:   1    -0.962419549808E+02   -0.27346E-04   -0.10827E+00  6104   0.273E+00    0.184E-01
DAV:   2    -0.962445039664E+02   -0.25490E-02   -0.28330E-02  6672   0.584E-01    0.166E-01
DAV:   3    -0.962447812562E+02   -0.27729E-03   -0.44102E-03  7824   0.210E-01    0.185E-01
DAV:   4    -0.962443875399E+02    0.39372E-03   -0.19367E-03  7024   0.147E-01    0.580E-02
DAV:   5    -0.962444406153E+02   -0.53075E-04   -0.10097E-03  6536   0.133E-01    0.578E-02
DAV:   6    -0.962443563056E+02    0.84310E-04   -0.39363E-04  5792   0.910E-02    0.182E-02
DAV:   7    -0.962443612136E+02   -0.49080E-05   -0.28233E-05  5128   0.182E-02
  46 F= -.99248164E+02 E0= -.99246894E+02  d E =-.429715E-02
       N       E                     dE             d eps       ncg     rms          rms(c)
DAV:   1    -0.962460808209E+02   -0.17245E-02   -0.56441E-01  6000   0.205E+00    0.162E-01
DAV:   2    -0.962475401147E+02   -0.14593E-02   -0.15443E-02  6632   0.439E-01    0.114E-01
DAV:   3    -0.962479015579E+02   -0.36144E-03   -0.27211E-03  8160   0.174E-01    0.170E-01
DAV:   4    -0.962475305347E+02    0.37102E-03   -0.14468E-03  6576   0.121E-01    0.502E-02
DAV:   5    -0.962475723971E+02   -0.41862E-04   -0.46636E-04  6216   0.852E-02    0.437E-02
DAV:   6    -0.962475226130E+02    0.49784E-04   -0.30479E-04  5648   0.809E-02    0.109E-02
DAV:   7    -0.962475232513E+02   -0.63831E-06   -0.21844E-05  4752   0.218E-02
  47 F= -.99250646E+02 E0= -.99249422E+02  d E =-.248209E-02
       N       E                     dE             d eps       ncg     rms          rms(c)
DAV:   1    -0.962400882223E+02    0.74344E-02   -0.47828E+00  6008   0.597E+00    0.459E-01
DAV:   2    -0.962526738240E+02   -0.12586E-01   -0.13267E-01  6736   0.131E+00    0.332E-01
DAV:   3    -0.962556462050E+02   -0.29724E-02   -0.23785E-02  8392   0.554E-01    0.482E-01
DAV:   4    -0.962525683265E+02    0.30779E-02   -0.11699E-02  8152   0.351E-01    0.137E-01
DAV:   5    -0.962528822428E+02   -0.31392E-03   -0.34887E-03  6976   0.224E-01    0.118E-01
DAV:   6    -0.962525204472E+02    0.36180E-03   -0.23295E-03  6528   0.238E-01    0.315E-02
DAV:   7    -0.962525174115E+02    0.30357E-05   -0.17838E-04  5928   0.608E-02    0.138E-02
DAV:   8    -0.962525194834E+02   -0.20719E-05   -0.35649E-05  5496   0.275E-02
  48 F= -.99253689E+02 E0= -.99252600E+02  d E =-.552520E-02
       N       E                     dE             d eps       ncg     rms          rms(c)
DAV:   1    -0.962523083222E+02    0.20909E-03   -0.92258E-01  5936   0.270E+00    0.201E-01
DAV:   2    -0.962552433318E+02   -0.29350E-02   -0.31803E-02  6792   0.609E-01    0.126E-01
DAV:   3    -0.962557573766E+02   -0.51404E-03   -0.43167E-03  8176   0.261E-01    0.190E-01
DAV:   4    -0.962552526179E+02    0.50476E-03   -0.21302E-03  6848   0.164E-01    0.658E-02
DAV:   5    -0.962552364239E+02    0.16194E-04   -0.17506E-04  6040   0.509E-02    0.259E-02
DAV:   6    -0.962552446090E+02   -0.81851E-05   -0.66196E-05  6072   0.420E-02
  49 F= -.99255341E+02 E0= -.99254312E+02  d E =-.165239E-02
       N       E                     dE             d eps       ncg     rms          rms(c)
DAV:   1    -0.962552496568E+02   -0.13233E-04   -0.70170E-05  5800   0.360E-02    0.574E-03
DAV:   2    -0.962552527665E+02   -0.31097E-05   -0.14050E-05  3848   0.196E-02
  50 F= -.99255342E+02 E0= -.99254308E+02  d E =-.165275E-02
       N       E                     dE             d eps       ncg     rms          rms(c)
DAV:   1    -0.962562172122E+02   -0.96756E-03   -0.21258E-01  5872   0.140E+00    0.921E-02
DAV:   2    -0.962572780807E+02   -0.10609E-02   -0.11396E-02  6496   0.342E-01    0.606E-02
DAV:   3    -0.962573370689E+02   -0.58988E-04   -0.74872E-04  7688   0.124E-01    0.456E-02
DAV:   4    -0.962573443079E+02   -0.72390E-05   -0.33923E-04  6304   0.878E-02    0.428E-02
DAV:   5    -0.962573509556E+02   -0.66477E-05   -0.20017E-04  5776   0.400E-02    0.489E-02
DAV:   6    -0.962573244312E+02    0.26524E-04   -0.10106E-04  5160   0.268E-02    0.135E-02
DAV:   7    -0.962573249142E+02   -0.48302E-06   -0.99752E-06  4152   0.147E-02
  51 F= -.99256712E+02 E0= -.99255715E+02  d E =-.137068E-02
       N       E                     dE             d eps       ncg     rms          rms(c)
DAV:   1    -0.962521244598E+02    0.52000E-02   -0.19075E+00  5872   0.420E+00    0.280E-01
DAV:   2    -0.962619440690E+02   -0.98196E-02   -0.10528E-01  6504   0.105E+00    0.186E-01
DAV:   3    -0.962626445179E+02   -0.70045E-03   -0.84818E-03  7960   0.421E-01    0.176E-01
DAV:   4    -0.962624067590E+02    0.23776E-03   -0.34185E-03  7288   0.251E-01    0.138E-01
DAV:   5    -0.962625056071E+02   -0.98848E-04   -0.12462E-03  6744   0.126E-01    0.123E-01
DAV:   6    -0.962622825144E+02    0.22309E-03   -0.10012E-03  6368   0.129E-01    0.358E-02
DAV:   7    -0.962622855289E+02   -0.30146E-05   -0.94437E-05  6368   0.412E-02
  52 F= -.99259581E+02 E0= -.99258681E+02  d E =-.423952E-02
       N       E                     dE             d eps       ncg     rms          rms(c)
DAV:   1    -0.962245904659E+02    0.37692E-01   -0.76366E+00  5864   0.841E+00    0.579E-01
DAV:   2    -0.962651038108E+02   -0.40513E-01   -0.43390E-01  6600   0.215E+00    0.378E-01
DAV:   3    -0.962681605396E+02   -0.30567E-02   -0.36936E-02  7720   0.886E-01    0.373E-01
DAV:   4    -0.962669282157E+02    0.12323E-02   -0.14649E-02  7872   0.555E-01    0.279E-01
DAV:   5    -0.962673920694E+02   -0.46385E-03   -0.51295E-03  8048   0.259E-01    0.251E-01
DAV:   6    -0.962664701073E+02    0.92196E-03   -0.40910E-03  6560   0.256E-01    0.744E-02
DAV:   7    -0.962664861544E+02   -0.16047E-04   -0.38422E-04  7104   0.841E-02    0.421E-02
DAV:   8    -0.962664873050E+02   -0.11506E-05   -0.63088E-05  6616   0.350E-02
  53 F= -.99259658E+02 E0= -.99258971E+02  d E =-.431592E-02
       N       E                     dE             d eps       ncg     rms          rms(c)
DAV:   1    -0.962558498579E+02    0.10636E-01   -0.17792E+00  5864   0.406E+00    0.256E-01
DAV:   2    -0.962650713358E+02   -0.92215E-02   -0.98468E-02  6392   0.977E-01    0.172E-01
DAV:   3    -0.962656264714E+02   -0.55514E-03   -0.66827E-03  8184   0.339E-01    0.147E-01
DAV:   4    -0.962655725226E+02    0.53949E-04   -0.28308E-03  7328   0.216E-01    0.133E-01
DAV:   5    -0.962655948929E+02   -0.22370E-04   -0.11431E-03  6784   0.998E-02    0.113E-01
DAV:   6    -0.962654244832E+02    0.17041E-03   -0.83345E-04  6400   0.119E-01    0.316E-02
DAV:   7    -0.962654283988E+02   -0.39156E-05   -0.86470E-05  5656   0.376E-02
  54 F= -.99260583E+02 E0= -.99259785E+02  d E =-.524134E-02
       N       E                     dE             d eps       ncg     rms          rms(c)
DAV:   1    -0.962627418672E+02    0.26826E-02   -0.10258E+00  5816   0.305E+00    0.177E-01
DAV:   2    -0.962673316801E+02   -0.45898E-02   -0.49707E-02  6368   0.740E-01    0.101E-01
DAV:   3    -0.962675476121E+02   -0.21593E-03   -0.30515E-03  8264   0.228E-01    0.737E-02
DAV:   4    -0.962675858428E+02   -0.38231E-04   -0.59631E-04  6816   0.127E-01    0.686E-02
DAV:   5    -0.962675449468E+02    0.40896E-04   -0.44645E-04  6208   0.742E-02    0.561E-02
DAV:   6    -0.962675432606E+02    0.16862E-05   -0.20429E-04  6184   0.426E-02    0.440E-02
DAV:   7    -0.962675254386E+02    0.17822E-04   -0.10542E-04  5656   0.422E-02    0.114E-02
DAV:   8    -0.962675241186E+02    0.13200E-05   -0.20855E-05  4816   0.278E-02
  55 F= -.99261706E+02 E0= -.99260889E+02  d E =-.112251E-02
       N       E                     dE             d eps       ncg     rms          rms(c)
DAV:   1    -0.962675040108E+02    0.21428E-04   -0.41645E-04  5848   0.638E-02    0.489E-03
DAV:   2    -0.962675068812E+02   -0.28703E-05   -0.23726E-05  4984   0.195E-02
  56 F= -.99261708E+02 E0= -.99260891E+02  d E =-.112508E-02
       N       E                     dE             d eps       ncg     rms          rms(c)
DAV:   1    -0.962674777982E+02    0.26213E-04   -0.29450E-01  5824   0.164E+00    0.954E-02
DAV:   2    -0.962687739255E+02   -0.12961E-02   -0.13880E-02  6384   0.398E-01    0.628E-02
DAV:   3    -0.962688825599E+02   -0.10863E-03   -0.10900E-03  8168   0.115E-01    0.729E-02
DAV:   4    -0.962688341623E+02    0.48398E-04   -0.33623E-04  5984   0.609E-02    0.408E-02
DAV:   5    -0.962688276184E+02    0.65439E-05   -0.63953E-05  5336   0.380E-02
  57 F= -.99262702E+02 E0= -.99261852E+02  d E =-.993527E-03
       N       E                     dE             d eps       ncg     rms          rms(c)
DAV:   1    -0.962637009487E+02    0.51332E-02   -0.14794E+00  5832   0.368E+00    0.210E-01
DAV:   2    -0.962702998645E+02   -0.65989E-02   -0.70806E-02  6336   0.910E-01    0.136E-01
DAV:   3    -0.962706620515E+02   -0.36219E-03   -0.48601E-03  8320   0.309E-01    0.102E-01
DAV:   4    -0.962706703052E+02   -0.82537E-05   -0.10131E-03  7016   0.153E-01    0.949E-02
DAV:   5    -0.962706406337E+02    0.29672E-04   -0.36320E-04  6552   0.628E-02    0.651E-02
DAV:   6    -0.962706498460E+02   -0.92123E-05   -0.53294E-04  6256   0.767E-02    0.543E-02
DAV:   7    -0.962706116908E+02    0.38155E-04   -0.24901E-04  5888   0.709E-02    0.148E-02
DAV:   8    -0.962706078183E+02    0.38726E-05   -0.28308E-05  5032   0.326E-02
  58 F= -.99263759E+02 E0= -.99262843E+02  d E =-.205115E-02
       N       E                     dE             d eps       ncg     rms          rms(c)
DAV:   1    -0.962704809000E+02    0.13079E-03   -0.65759E-02  5856   0.776E-01    0.459E-02
DAV:   2    -0.962707693329E+02   -0.28843E-03   -0.31032E-03  6584   0.188E-01    0.280E-02
DAV:   3    -0.962707888126E+02   -0.19480E-04   -0.20003E-04  7208   0.525E-02    0.266E-02
DAV:   4    -0.962707878299E+02    0.98261E-06   -0.60434E-05  4992   0.261E-02
  59 F= -.99263789E+02 E0= -.99262849E+02  d E =-.208106E-02
       N       E                     dE             d eps       ncg     rms          rms(c)
DAV:   1    -0.962701892727E+02    0.59954E-03   -0.34587E-01  5824   0.179E+00    0.106E-01
DAV:   2    -0.962716598439E+02   -0.14706E-02   -0.16266E-02  6544   0.424E-01    0.764E-02
DAV:   3    -0.962717605487E+02   -0.10070E-03   -0.11650E-03  8016   0.131E-01    0.718E-02
DAV:   4    -0.962717423569E+02    0.18192E-04   -0.54824E-04  6128   0.871E-02    0.600E-02
DAV:   5    -0.962717164450E+02    0.25912E-04   -0.11623E-04  5592   0.346E-02    0.248E-02
DAV:   6    -0.962717194612E+02   -0.30162E-05   -0.10508E-04  5024   0.488E-02    0.203E-02
DAV:   7    -0.962717134638E+02    0.59974E-05   -0.41026E-05  4472   0.313E-02
  60 F= -.99264644E+02 E0= -.99263676E+02  d E =-.854840E-03
