       N       E                     dE             d eps       ncg     rms          rms(c)
DAV:   1     0.218724048946E+04    0.21872E+04   -0.92225E+04  5800   0.157E+03
DAV:   2     0.278001391176E+03   -0.19092E+04   -0.18575E+04  5600   0.450E+02
DAV:   3    -0.600565752156E+02   -0.33806E+03   -0.32787E+03  6432   0.197E+02
DAV:   4    -0.903205681841E+02   -0.30264E+02   -0.29624E+02  6856   0.559E+01
DAV:   5    -0.933706943957E+02   -0.30501E+01   -0.30232E+01  9352   0.119E+01    0.410E+01
RMM:   6    -0.899450298280E+02    0.34257E+01   -0.14392E+01  6265   0.629E+00    0.304E+01
RMM:   7    -0.998457082767E+02   -0.99007E+01   -0.13627E+01  6595   0.620E+00    0.246E+01
RMM:   8    -0.936328172961E+02    0.62129E+01   -0.61257E+00  6741   0.506E+00    0.149E+01
RMM:   9    -0.872138373524E+02    0.64190E+01   -0.48814E+00  6970   0.376E+00    0.562E+00
RMM:  10    -0.866384376109E+02    0.57540E+00   -0.22685E+00  7496   0.211E+00    0.287E+00
RMM:  11    -0.868482077435E+02   -0.20977E+00   -0.10560E+00  8123   0.163E+00    0.428E+00
RMM:  12    -0.866129076316E+02    0.23530E+00   -0.48115E-01  7705   0.128E+00    0.144E+00
RMM:  13    -0.866004807588E+02    0.12427E-01   -0.15093E-01  9234   0.594E-01    0.110E+00
RMM:  14    -0.865903733619E+02    0.10107E-01   -0.10993E-01  9450   0.369E-01    0.624E-01
RMM:  15    -0.865889957219E+02    0.13776E-02   -0.32134E-02  9208   0.317E-01    0.483E-01
RMM:  16    -0.865882274102E+02    0.76831E-03   -0.31072E-02  9403   0.220E-01    0.252E-01
RMM:  17    -0.865890149332E+02   -0.78752E-03   -0.14634E-02  9690   0.171E-01    0.395E-02
RMM:  18    -0.865902524073E+02   -0.12375E-02   -0.10383E-02  9680   0.128E-01    0.996E-02
RMM:  19    -0.865908286307E+02   -0.57622E-03   -0.54793E-03  9201   0.101E-01    0.482E-02
RMM:  20    -0.865914012728E+02   -0.57264E-03   -0.42095E-03  9161   0.751E-02    0.479E-02
RMM:  21    -0.865917730721E+02   -0.37180E-03   -0.24035E-03  8871   0.629E-02    0.566E-02
RMM:  22    -0.865920991290E+02   -0.32606E-03   -0.14991E-03  8578   0.502E-02    0.315E-02
RMM:  23    -0.865922780005E+02   -0.17887E-03   -0.10647E-03  7618   0.385E-02    0.230E-02
RMM:  24    -0.865924386417E+02   -0.16064E-03   -0.65820E-04  6715   0.307E-02    0.122E-02
RMM:  25    -0.865925402109E+02   -0.10157E-03   -0.45930E-04  5706   0.248E-02    0.773E-03
RMM:  26    -0.865925936381E+02   -0.53427E-04   -0.30013E-04  5012   0.201E-02    0.785E-03
RMM:  27    -0.865926231150E+02   -0.29477E-04   -0.19774E-04  4620   0.164E-02    0.740E-03
RMM:  28    -0.865926413177E+02   -0.18203E-04   -0.13910E-04  4521   0.135E-02    0.550E-03
RMM:  29    -0.865926507698E+02   -0.94521E-05   -0.90755E-05  4238   0.109E-02
   1 F= -.89610076E+02 E0= -.89609993E+02  d E =-.896101E+02
       N       E                     dE             d eps       ncg     rms          rms(c)
DAV:   1    -0.865531088119E+02    0.39533E-01   -0.95689E+01  6120   0.229E+01    0.244E+00
RMM:   2    -0.868519621711E+02   -0.29885E+00   -0.31975E+00  6070   0.583E+00    0.116E+00
RMM:   3    -0.869641902800E+02   -0.11223E+00   -0.11046E+00  7809   0.279E+00    0.879E-01
RMM:   4    -0.869662270946E+02   -0.20368E-02   -0.13233E-01  7881   0.997E-01    0.110E+00
RMM:   5    -0.869584404532E+02    0.77866E-02   -0.24623E-02  8248   0.407E-01    0.860E-01
RMM:   6    -0.869580120173E+02    0.42844E-03   -0.70115E-03  8019   0.206E-01    0.511E-01
RMM:   7    -0.869567190874E+02    0.12929E-02   -0.12364E-02  7654   0.192E-01    0.364E-01
RMM:   8    -0.869568171715E+02   -0.98084E-04   -0.27186E-03  7093   0.122E-01    0.300E-01
RMM:   9    -0.869566366227E+02    0.18055E-03   -0.92396E-04  6502   0.707E-02    0.686E-02
RMM:  10    -0.869567447320E+02   -0.10811E-03   -0.10958E-03  6256   0.556E-02    0.110E-01
RMM:  11    -0.869567284755E+02    0.16257E-04   -0.51521E-04  5912   0.469E-02    0.771E-02
RMM:  12    -0.869567562273E+02   -0.27752E-04   -0.15296E-04  5474   0.225E-02    0.457E-02
RMM:  13    -0.869567923713E+02   -0.36144E-04   -0.14226E-04  5300   0.194E-02    0.235E-02
RMM:  14    -0.869568087471E+02   -0.16376E-04   -0.50793E-05  4575   0.119E-02    0.138E-02
RMM:  15    -0.869568288127E+02   -0.20066E-04   -0.32909E-05  3928   0.842E-03    0.725E-03
RMM:  16    -0.869568453634E+02   -0.16551E-04   -0.20524E-05  3622   0.761E-03    0.132E-03
RMM:  17    -0.869568544999E+02   -0.91366E-05   -0.13172E-05  3021   0.589E-03
   2 F= -.89970080E+02 E0= -.89972900E+02  d E =-.360004E+00
       N       E                     dE             d eps       ncg     rms          rms(c)
DAV:   1    -0.867271511495E+02    0.22969E+00   -0.79569E+01  5784   0.210E+01    0.228E+00
RMM:   2    -0.869730979186E+02   -0.24595E+00   -0.26563E+00  6094   0.531E+00    0.977E-01
RMM:   3    -0.870603244529E+02   -0.87227E-01   -0.90946E-01  7682   0.261E+00    0.670E-01
RMM:   4    -0.870719746151E+02   -0.11650E-01   -0.11322E-01  7910   0.937E-01    0.973E-01
RMM:   5    -0.870660468591E+02    0.59278E-02   -0.21028E-02  8220   0.373E-01    0.766E-01
RMM:   6    -0.870656993564E+02    0.34750E-03   -0.56582E-03  7897   0.186E-01    0.428E-01
RMM:   7    -0.870648049014E+02    0.89446E-03   -0.11213E-02  7352   0.184E-01    0.353E-01
RMM:   8    -0.870647914683E+02    0.13433E-04   -0.22280E-03  6918   0.110E-01    0.250E-01
RMM:   9    -0.870646355830E+02    0.15589E-03   -0.99440E-04  6418   0.692E-02    0.454E-02
RMM:  10    -0.870647192738E+02   -0.83691E-04   -0.69036E-04  6184   0.451E-02    0.532E-02
RMM:  11    -0.870647409276E+02   -0.21654E-04   -0.29935E-04  5695   0.333E-02    0.582E-02
RMM:  12    -0.870647645252E+02   -0.23598E-04   -0.12062E-04  5033   0.189E-02    0.232E-02
RMM:  13    -0.870648069903E+02   -0.42465E-04   -0.11637E-04  5058   0.161E-02    0.250E-02
RMM:  14    -0.870648168465E+02   -0.98562E-05   -0.47117E-05  4440   0.115E-02
   3 F= -.90075133E+02 E0= -.90080529E+02  d E =-.465057E+00
       N       E                     dE             d eps       ncg     rms          rms(c)
DAV:   1    -0.871612763252E+02   -0.96469E-01   -0.12943E+01  6104   0.767E+00    0.858E-01
RMM:   2    -0.871985542026E+02   -0.37278E-01   -0.39370E-01  6100   0.200E+00    0.404E-01
RMM:   3    -0.872156869215E+02   -0.17133E-01   -0.14947E-01  7861   0.109E+00    0.472E-01
RMM:   4    -0.872134666734E+02    0.22202E-02   -0.14871E-02  7874   0.345E-01    0.317E-01
RMM:   5    -0.872136744288E+02   -0.20776E-03   -0.27882E-03  8226   0.147E-01    0.282E-01
RMM:   6    -0.872134149624E+02    0.25947E-03   -0.13896E-03  7366   0.824E-02    0.954E-02
RMM:   7    -0.872134494567E+02   -0.34494E-04   -0.97498E-04  6259   0.690E-02    0.136E-01
RMM:   8    -0.872134276185E+02    0.21838E-04   -0.22000E-04  6030   0.334E-02    0.710E-02
RMM:   9    -0.872134266050E+02    0.10135E-05   -0.16701E-04  5299   0.233E-02    0.251E-02
RMM:  10    -0.872134458448E+02   -0.19240E-04   -0.74571E-05  5172   0.201E-02    0.580E-02
RMM:  11    -0.872134499335E+02   -0.40887E-05   -0.56721E-05  4773   0.134E-02
   4 F= -.90222052E+02 E0= -.90228449E+02  d E =-.146918E+00
       N       E                     dE             d eps       ncg     rms          rms(c)
DAV:   1    -0.869528316639E+02    0.26061E+00   -0.10457E+02  5600   0.231E+01    0.260E+00
RMM:   2    -0.872986345030E+02   -0.34580E+00   -0.36262E+00  6118   0.604E+00    0.120E+00
RMM:   3    -0.874332656484E+02   -0.13463E+00   -0.13567E+00  7758   0.331E+00    0.116E+00
RMM:   4    -0.874388970877E+02   -0.56314E-02   -0.14317E-01  8103   0.103E+00    0.102E+00
RMM:   5    -0.874385050012E+02    0.39209E-03   -0.23342E-02  8228   0.416E-01    0.932E-01
RMM:   6    -0.874371921807E+02    0.13128E-02   -0.94582E-03  7674   0.265E-01    0.335E-01
RMM:   7    -0.874368982953E+02    0.29389E-03   -0.10118E-02  7249   0.222E-01    0.541E-01
RMM:   8    -0.874362849837E+02    0.61331E-03   -0.31639E-03  6677   0.155E-01    0.108E-01
RMM:   9    -0.874365021156E+02   -0.21713E-03   -0.23207E-03  7056   0.977E-02    0.199E-01
RMM:  10    -0.874364986141E+02    0.35016E-05   -0.14224E-03  6218   0.954E-02    0.144E-01
RMM:  11    -0.874365153531E+02   -0.16739E-04   -0.32236E-04  6604   0.401E-02    0.762E-02
RMM:  12    -0.874365605017E+02   -0.45149E-04   -0.47948E-04  5973   0.411E-02    0.521E-02
RMM:  13    -0.874365651495E+02   -0.46478E-05   -0.14778E-04  5312   0.234E-02    0.158E-02
RMM:  14    -0.874365922362E+02   -0.27087E-04   -0.87558E-05  4817   0.142E-02    0.110E-02
RMM:  15    -0.874366288235E+02   -0.36587E-04   -0.69320E-05  4622   0.116E-02    0.143E-02
RMM:  16    -0.874366502218E+02   -0.21398E-04   -0.30238E-05  3848   0.880E-03    0.164E-02
RMM:  17    -0.874366650819E+02   -0.14860E-04   -0.24034E-05  3625   0.772E-03    0.643E-03
RMM:  18    -0.874366772312E+02   -0.12149E-04   -0.19217E-05  3219   0.624E-03    0.159E-03
RMM:  19    -0.874366820042E+02   -0.47730E-05   -0.11677E-05  2938   0.565E-03
   5 F= -.90441642E+02 E0= -.90448898E+02  d E =-.366509E+00
       N       E                     dE             d eps       ncg     rms          rms(c)
DAV:   1    -0.874292999399E+02    0.73773E-02   -0.26308E+00  6296   0.348E+00    0.412E-01
RMM:   2    -0.874371894098E+02   -0.78895E-02   -0.83969E-02  6092   0.911E-01    0.203E-01
RMM:   3    -0.874402411427E+02   -0.30517E-02   -0.30050E-02  7898   0.487E-01    0.171E-01
RMM:   4    -0.874403305742E+02   -0.89431E-04   -0.32820E-03  7783   0.158E-01    0.142E-01
RMM:   5    -0.874402837919E+02    0.46782E-04   -0.62694E-04  7307   0.667E-02    0.120E-01
RMM:   6    -0.874402402104E+02    0.43582E-04   -0.30941E-04  6040   0.394E-02    0.440E-02
RMM:   7    -0.874402440591E+02   -0.38488E-05   -0.17957E-04  5540   0.306E-02    0.478E-02
RMM:   8    -0.874402404918E+02    0.35673E-05   -0.54018E-05  4839   0.161E-02
   6 F= -.90444792E+02 E0= -.90451978E+02  d E =-.369658E+00
       N       E                     dE             d eps       ncg     rms          rms(c)
DAV:   1    -0.874948639637E+02   -0.54620E-01   -0.61992E+00  5720   0.548E+00    0.614E-01
RMM:   2    -0.875108089230E+02   -0.15945E-01   -0.20386E-01  6085   0.122E+00    0.302E-01
RMM:   3    -0.875163804503E+02   -0.55715E-02   -0.54472E-02  7375   0.593E-01    0.267E-01
RMM:   4    -0.875152186399E+02    0.11618E-02   -0.69197E-03  7355   0.212E-01    0.208E-01
RMM:   5    -0.875149709945E+02    0.24765E-03   -0.16228E-03  7322   0.895E-02    0.133E-01
RMM:   6    -0.875149557427E+02    0.15252E-04   -0.91063E-04  5833   0.562E-02    0.438E-02
RMM:   7    -0.875149581087E+02   -0.23660E-05   -0.41675E-04  5334   0.378E-02    0.331E-02
RMM:   8    -0.875149687738E+02   -0.10665E-04   -0.14151E-04  5103   0.214E-02    0.116E-02
RMM:   9    -0.875149846904E+02   -0.15917E-04   -0.84456E-05  4511   0.142E-02    0.146E-02
RMM:  10    -0.875149963785E+02   -0.11688E-04   -0.37481E-05  4125   0.101E-02    0.233E-03
RMM:  11    -0.875150026637E+02   -0.62852E-05   -0.22123E-05  3671   0.756E-03
   7 F= -.90519816E+02 E0= -.90527110E+02  d E =-.750246E-01
       N       E                     dE             d eps       ncg     rms          rms(c)
DAV:   1    -0.875177589455E+02   -0.27626E-02   -0.61476E-01  6112   0.172E+00    0.194E-01
RMM:   2    -0.875192578057E+02   -0.14989E-02   -0.19841E-02  5993   0.375E-01    0.997E-02
RMM:   3    -0.875197724134E+02   -0.51461E-03   -0.51041E-03  7091   0.190E-01    0.895E-02
RMM:   4    -0.875196385037E+02    0.13391E-03   -0.85753E-04  6633   0.710E-02    0.658E-02
RMM:   5    -0.875196157064E+02    0.22797E-04   -0.18462E-04  5564   0.305E-02    0.428E-02
RMM:   6    -0.875196193786E+02   -0.36722E-05   -0.10137E-04  4914   0.205E-02    0.138E-02
RMM:   7    -0.875196214061E+02   -0.20275E-05   -0.47266E-05  4820   0.147E-02
   8 F= -.90524528E+02 E0= -.90531853E+02  d E =-.797361E-01
       N       E                     dE             d eps       ncg     rms          rms(c)
DAV:   1    -0.875339400066E+02   -0.14321E-01   -0.96479E-01  5872   0.233E+00    0.220E-01
RMM:   2    -0.875365444127E+02   -0.26044E-02   -0.28029E-02  6000   0.590E-01    0.104E-01
RMM:   3    -0.875376112802E+02   -0.10669E-02   -0.98058E-03  7528   0.308E-01    0.977E-02
RMM:   4    -0.875375562925E+02    0.54988E-04   -0.10491E-03  7503   0.100E-01    0.790E-02
RMM:   5    -0.875375480880E+02    0.82045E-05   -0.19133E-04  6593   0.393E-02    0.625E-02
RMM:   6    -0.875375415317E+02    0.65564E-05   -0.10566E-04  5198   0.241E-02    0.223E-02
RMM:   7    -0.875375449411E+02   -0.34094E-05   -0.60523E-05  4786   0.167E-02
   9 F= -.90543193E+02 E0= -.90550485E+02  d E =-.186657E-01
       N       E                     dE             d eps       ncg     rms          rms(c)
DAV:   1    -0.875379766867E+02   -0.43516E-03   -0.86939E+00  5680   0.705E+00    0.656E-01
RMM:   2    -0.875616941103E+02   -0.23717E-01   -0.25629E-01  6045   0.181E+00    0.318E-01
RMM:   3    -0.875717430120E+02   -0.10049E-01   -0.90570E-02  7755   0.952E-01    0.313E-01
RMM:   4    -0.875708985916E+02    0.84442E-03   -0.95212E-03  7909   0.304E-01    0.243E-01
RMM:   5    -0.875708123351E+02    0.86257E-04   -0.16891E-03  8184   0.116E-01    0.190E-01
RMM:   6    -0.875707310417E+02    0.81293E-04   -0.92317E-04  6747   0.664E-02    0.692E-02
RMM:   7    -0.875707608780E+02   -0.29836E-04   -0.56728E-04  5756   0.468E-02    0.908E-02
RMM:   8    -0.875707420800E+02    0.18798E-04   -0.12655E-04  5322   0.245E-02    0.356E-02
RMM:   9    -0.875707658422E+02   -0.23762E-04   -0.17247E-04  5192   0.223E-02    0.357E-02
RMM:  10    -0.875707667382E+02   -0.89601E-06   -0.66049E-05  4813   0.153E-02
  10 F= -.90578720E+02 E0= -.90585847E+02  d E =-.541925E-01
       N       E                     dE             d eps       ncg     rms          rms(c)
DAV:   1    -0.874155774809E+02    0.15519E+00   -0.34864E+01  5624   0.143E+01    0.133E+00
RMM:   2    -0.875158621084E+02   -0.10028E+00   -0.10856E+00  6043   0.372E+00    0.652E-01
RMM:   3    -0.875605762076E+02   -0.44714E-01   -0.40021E-01  7787   0.200E+00    0.686E-01
RMM:   4    -0.875556581432E+02    0.49181E-02   -0.42192E-02  7823   0.640E-01    0.527E-01
RMM:   5    -0.875553873679E+02    0.27078E-03   -0.77653E-03  8413   0.254E-01    0.426E-01
RMM:   6    -0.875550699919E+02    0.31738E-03   -0.32202E-03  7514   0.135E-01    0.155E-01
RMM:   7    -0.875552009051E+02   -0.13091E-03   -0.32948E-03  6418   0.121E-01    0.241E-01
RMM:   8    -0.875550564409E+02    0.14446E-03   -0.58190E-04  6696   0.608E-02    0.110E-01
RMM:   9    -0.875551378809E+02   -0.81440E-04   -0.92540E-04  5931   0.561E-02    0.859E-02
RMM:  10    -0.875551283100E+02    0.95709E-05   -0.40615E-04  5674   0.411E-02    0.555E-02
RMM:  11    -0.875551643819E+02   -0.36072E-04   -0.95077E-05  5259   0.188E-02    0.311E-02
RMM:  12    -0.875552168499E+02   -0.52468E-04   -0.13401E-04  5107   0.180E-02    0.235E-02
RMM:  13    -0.875552254195E+02   -0.85696E-05   -0.36836E-05  4188   0.946E-03
  11 F= -.90568134E+02 E0= -.90574676E+02  d E =-.436062E-01
       N       E                     dE             d eps       ncg     rms          rms(c)
DAV:   1    -0.875299786135E+02    0.25238E-01   -0.11959E+01  5576   0.844E+00    0.825E-01
RMM:   2    -0.875631996891E+02   -0.33221E-01   -0.35553E-01  6018   0.214E+00    0.381E-01
RMM:   3    -0.875771415700E+02   -0.13942E-01   -0.13497E-01  7652   0.113E+00    0.344E-01
RMM:   4    -0.875772350182E+02   -0.93448E-04   -0.13723E-02  7888   0.363E-01    0.285E-01
RMM:   5    -0.875769240364E+02    0.31098E-03   -0.24931E-03  8201   0.144E-01    0.244E-01
RMM:   6    -0.875768156128E+02    0.10842E-03   -0.99093E-04  7129   0.794E-02    0.812E-02
RMM:   7    -0.875768304359E+02   -0.14823E-04   -0.98257E-04  5974   0.700E-02    0.125E-01
RMM:   8    -0.875767937171E+02    0.36719E-04   -0.20398E-04  5847   0.364E-02    0.312E-02
RMM:   9    -0.875768035778E+02   -0.98607E-05   -0.15898E-04  5391   0.246E-02    0.325E-02
RMM:  10    -0.875768038018E+02   -0.22406E-06   -0.76082E-05  5044   0.220E-02
  12 F= -.90586748E+02 E0= -.90593659E+02  d E =-.622199E-01
       N       E                     dE             d eps       ncg     rms          rms(c)
DAV:   1    -0.875750963989E+02    0.17072E-02   -0.34886E+00  5504   0.500E+00    0.449E-01
RMM:   2    -0.875871690702E+02   -0.12073E-01   -0.13507E-01  6028   0.113E+00    0.215E-01
RMM:   3    -0.875901947971E+02   -0.30257E-02   -0.31091E-02  7733   0.592E-01    0.185E-01
RMM:   4    -0.875903305924E+02   -0.13580E-03   -0.43285E-03  7846   0.200E-01    0.171E-01
RMM:   5    -0.875901353138E+02    0.19528E-03   -0.89075E-04  7851   0.813E-02    0.110E-01
RMM:   6    -0.875901193735E+02    0.15940E-04   -0.47040E-04  6101   0.473E-02    0.319E-02
RMM:   7    -0.875901315732E+02   -0.12200E-04   -0.19898E-04  5599   0.294E-02    0.280E-02
RMM:   8    -0.875901322025E+02   -0.62932E-06   -0.72253E-05  4993   0.175E-02
  13 F= -.90600783E+02 E0= -.90607775E+02  d E =-.140350E-01
       N       E                     dE             d eps       ncg     rms          rms(c)
DAV:   1    -0.875889156560E+02    0.12159E-02   -0.54707E-01  5896   0.198E+00    0.178E-01
RMM:   2    -0.875908314384E+02   -0.19158E-02   -0.21534E-02  5969   0.446E-01    0.836E-02
RMM:   3    -0.875912824641E+02   -0.45103E-03   -0.48659E-03  7683   0.233E-01    0.658E-02
RMM:   4    -0.875913504424E+02   -0.67978E-04   -0.68330E-04  7398   0.809E-02    0.687E-02
RMM:   5    -0.875913102590E+02    0.40183E-04   -0.17836E-04  6275   0.349E-02    0.426E-02
RMM:   6    -0.875913116274E+02   -0.13684E-05   -0.87612E-05  5077   0.209E-02
  14 F= -.90602249E+02 E0= -.90609257E+02  d E =-.155017E-01
       N       E                     dE             d eps       ncg     rms          rms(c)
DAV:   1    -0.875966308837E+02   -0.53206E-02   -0.15315E+00  5552   0.315E+00    0.292E-01
RMM:   2    -0.876016789435E+02   -0.50481E-02   -0.56390E-02  6005   0.751E-01    0.147E-01
RMM:   3    -0.876032483265E+02   -0.15694E-02   -0.14715E-02  7892   0.408E-01    0.117E-01
RMM:   4    -0.876034109443E+02   -0.16262E-03   -0.18703E-03  7859   0.134E-01    0.125E-01
RMM:   5    -0.876032966324E+02    0.11431E-03   -0.36521E-04  7495   0.528E-02    0.808E-02
RMM:   6    -0.876033105739E+02   -0.13941E-04   -0.17168E-04  5765   0.296E-02    0.256E-02
RMM:   7    -0.876033183949E+02   -0.78210E-05   -0.78654E-05  5128   0.200E-02
  15 F= -.90614696E+02 E0= -.90621740E+02  d E =-.124470E-01
       N       E                     dE             d eps       ncg     rms          rms(c)
DAV:   1    -0.875749749710E+02    0.28336E-01   -0.11115E+01  5440   0.859E+00    0.769E-01
RMM:   2    -0.876128663968E+02   -0.37891E-01   -0.42195E-01  6051   0.209E+00    0.404E-01
RMM:   3    -0.876249145455E+02   -0.12048E-01   -0.11510E-01  7961   0.114E+00    0.344E-01
RMM:   4    -0.876258010215E+02   -0.88648E-03   -0.13643E-02  8065   0.366E-01    0.374E-01
RMM:   5    -0.876251119755E+02    0.68905E-03   -0.25690E-03  8389   0.141E-01    0.259E-01
RMM:   6    -0.876251676715E+02   -0.55696E-04   -0.12258E-03  7532   0.779E-02    0.783E-02
RMM:   7    -0.876252195517E+02   -0.51880E-04   -0.53946E-04  6496   0.567E-02    0.814E-02
RMM:   8    -0.876252098071E+02    0.97446E-05   -0.27320E-04  6054   0.322E-02    0.458E-02
RMM:   9    -0.876252149757E+02   -0.51686E-05   -0.17898E-04  5289   0.231E-02    0.222E-02
RMM:  10    -0.876252216276E+02   -0.66520E-05   -0.79534E-05  4713   0.146E-02
  16 F= -.90637875E+02 E0= -.90644919E+02  d E =-.356253E-01
       N       E                     dE             d eps       ncg     rms          rms(c)
DAV:   1    -0.874111069798E+02    0.21411E+00   -0.44693E+01  5608   0.173E+01    0.158E+00
RMM:   2    -0.875702849508E+02   -0.15918E+00   -0.17737E+00  6084   0.420E+00    0.813E-01
RMM:   3    -0.876219763129E+02   -0.51691E-01   -0.49632E-01  7927   0.240E+00    0.757E-01
RMM:   4    -0.876245533410E+02   -0.25770E-02   -0.64151E-02  7912   0.764E-01    0.899E-01
RMM:   5    -0.876228393353E+02    0.17140E-02   -0.11088E-02  8547   0.299E-01    0.684E-01
RMM:   6    -0.876226745104E+02    0.16482E-03   -0.58258E-03  8032   0.166E-01    0.206E-01
RMM:   7    -0.876230885262E+02   -0.41402E-03   -0.29707E-03  6792   0.138E-01    0.313E-01
RMM:   8    -0.876228402480E+02    0.24828E-03   -0.12556E-03  7102   0.791E-02    0.170E-01
RMM:   9    -0.876228526205E+02   -0.12373E-04   -0.13361E-03  6807   0.652E-02    0.102E-01
RMM:  10    -0.876228482135E+02    0.44070E-05   -0.47560E-04  6063   0.447E-02    0.531E-02
RMM:  11    -0.876228855002E+02   -0.37287E-04   -0.28280E-04  5598   0.256E-02    0.706E-02
RMM:  12    -0.876228823875E+02    0.31127E-05   -0.16789E-04  5265   0.211E-02    0.102E-02
RMM:  13    -0.876228899131E+02   -0.75257E-05   -0.78114E-05  4556   0.122E-02
  17 F= -.90638588E+02 E0= -.90645289E+02  d E =-.363384E-01
       N       E                     dE             d eps       ncg     rms          rms(c)
DAV:   1    -0.875816063545E+02    0.41276E-01   -0.11076E+01  5600   0.850E+00    0.963E-01
RMM:   2    -0.876191754812E+02   -0.37569E-01   -0.42333E-01  6048   0.215E+00    0.421E-01
RMM:   3    -0.876310681657E+02   -0.11893E-01   -0.11596E-01  7947   0.113E+00    0.310E-01
RMM:   4    -0.876326390484E+02   -0.15709E-02   -0.13926E-02  8081   0.376E-01    0.285E-01
RMM:   5    -0.876317597741E+02    0.87927E-03   -0.26595E-03  8395   0.144E-01    0.215E-01
RMM:   6    -0.876317837910E+02   -0.24017E-04   -0.91879E-04  7707   0.725E-02    0.996E-02
RMM:   7    -0.876318331429E+02   -0.49352E-04   -0.52314E-04  6636   0.525E-02    0.669E-02
RMM:   8    -0.876318368799E+02   -0.37370E-05   -0.18830E-04  5803   0.302E-02    0.424E-02
RMM:   9    -0.876318369126E+02   -0.32695E-07   -0.16684E-04  5510   0.234E-02    0.256E-02
RMM:  10    -0.876318421731E+02   -0.52604E-05   -0.59373E-05  4616   0.136E-02
  18 F= -.90645929E+02 E0= -.90652841E+02  d E =-.436801E-01
       N       E                     dE             d eps       ncg     rms          rms(c)
DAV:   1    -0.876245555042E+02    0.72814E-02   -0.32027E+00  5664   0.476E+00    0.399E-01
RMM:   2    -0.876339968236E+02   -0.94413E-02   -0.10350E-01  5985   0.110E+00    0.189E-01
RMM:   3    -0.876368737946E+02   -0.28770E-02   -0.30184E-02  7807   0.595E-01    0.151E-01
RMM:   4    -0.876371704357E+02   -0.29664E-03   -0.36265E-03  7719   0.190E-01    0.153E-01
RMM:   5    -0.876370496082E+02    0.12083E-03   -0.64206E-04  7850   0.745E-02    0.123E-01
RMM:   6    -0.876370271440E+02    0.22464E-04   -0.29205E-04  6112   0.407E-02    0.376E-02
RMM:   7    -0.876370365604E+02   -0.94164E-05   -0.15977E-04  5313   0.296E-02    0.441E-02
RMM:   8    -0.876370348376E+02    0.17228E-05   -0.61265E-05  4859   0.165E-02
  19 F= -.90651010E+02 E0= -.90657945E+02  d E =-.508071E-02
       N       E                     dE             d eps       ncg     rms          rms(c)
DAV:   1    -0.876370012650E+02    0.35295E-04   -0.10873E-02  6552   0.274E-01    0.341E-02
RMM:   2    -0.876370299056E+02   -0.28641E-04   -0.32178E-04  5633   0.627E-02    0.166E-02
RMM:   3    -0.876370452468E+02   -0.15341E-04   -0.96764E-05  5553   0.340E-02    0.189E-02
RMM:   4    -0.876370368461E+02    0.84007E-05   -0.20895E-05  3561   0.158E-02
  20 F= -.90651017E+02 E0= -.90657947E+02  d E =-.508803E-02
       N       E                     dE             d eps       ncg     rms          rms(c)
DAV:   1    -0.876372032553E+02   -0.15801E-03   -0.88448E-01  6368   0.209E+00    0.203E-01
RMM:   2    -0.876391209613E+02   -0.19177E-02   -0.20093E-02  5969   0.537E-01    0.877E-02
RMM:   3    -0.876401775889E+02   -0.10566E-02   -0.93910E-03  7433   0.295E-01    0.850E-02
RMM:   4    -0.876401144628E+02    0.63126E-04   -0.95685E-04  7444   0.919E-02    0.756E-02
RMM:   5    -0.876401107931E+02    0.36698E-05   -0.15684E-04  6429   0.362E-02    0.664E-02
RMM:   6    -0.876401121688E+02   -0.13758E-05   -0.41332E-05  4490   0.174E-02
  21 F= -.90653678E+02 E0= -.90660638E+02  d E =-.266037E-02
       N       E                     dE             d eps       ncg     rms          rms(c)
DAV:   1    -0.876399068447E+02    0.20395E-03   -0.33399E-01  6520   0.128E+00    0.147E-01
RMM:   2    -0.876406106418E+02   -0.70380E-03   -0.74508E-03  5966   0.327E-01    0.689E-02
RMM:   3    -0.876410795285E+02   -0.46889E-03   -0.34833E-03  7371   0.180E-01    0.704E-02
RMM:   4    -0.876409681519E+02    0.11138E-03   -0.39741E-04  6926   0.585E-02    0.406E-02
RMM:   5    -0.876409697708E+02   -0.16189E-05   -0.72453E-05  5463   0.246E-02
  22 F= -.90654287E+02 E0= -.90661260E+02  d E =-.326952E-02
       N       E                     dE             d eps       ncg     rms          rms(c)
DAV:   1    -0.876416513109E+02   -0.68316E-03   -0.16581E-01  5760   0.987E-01    0.829E-02
RMM:   2    -0.876420584656E+02   -0.40715E-03   -0.45002E-03  5971   0.222E-01    0.448E-02
RMM:   3    -0.876422282774E+02   -0.16981E-03   -0.15566E-03  7401   0.120E-01    0.409E-02
RMM:   4    -0.876422142381E+02    0.14039E-04   -0.17122E-04  6249   0.396E-02    0.369E-02
RMM:   5    -0.876422124161E+02    0.18221E-05   -0.41204E-05  4562   0.179E-02
  23 F= -.90655034E+02 E0= -.90662044E+02  d E =-.746971E-03
       N       E                     dE             d eps       ncg     rms          rms(c)
DAV:   1    -0.876423441761E+02   -0.12994E-03   -0.74895E-03  6144   0.207E-01    0.277E-02
RMM:   2    -0.876423605667E+02   -0.16391E-04   -0.19392E-04  5324   0.476E-02    0.150E-02
RMM:   3    -0.876423694190E+02   -0.88522E-05   -0.76884E-05  4878   0.265E-02
  24 F= -.90655086E+02 E0= -.90662107E+02  d E =-.798756E-03
       N       E                     dE             d eps       ncg     rms          rms(c)
DAV:   1    -0.876430755300E+02   -0.71496E-03   -0.81914E-02  5712   0.682E-01    0.661E-02
RMM:   2    -0.876433215986E+02   -0.24607E-03   -0.26734E-03  6035   0.174E-01    0.351E-02
RMM:   3    -0.876434091863E+02   -0.87588E-04   -0.86127E-04  7283   0.917E-02    0.248E-02
RMM:   4    -0.876434209703E+02   -0.11784E-04   -0.10226E-04  6019   0.323E-02    0.265E-02
RMM:   5    -0.876434163633E+02    0.46070E-05   -0.27666E-05  4141   0.155E-02
  25 F= -.90655729E+02 E0= -.90662776E+02  d E =-.643316E-03
       N       E                     dE             d eps       ncg     rms          rms(c)
DAV:   1    -0.876424649310E+02    0.95604E-03   -0.69916E-01  5576   0.199E+00    0.211E-01
RMM:   2    -0.876445383331E+02   -0.20734E-02   -0.22639E-02  6105   0.513E-01    0.108E-01
RMM:   3    -0.876453438854E+02   -0.80555E-03   -0.74379E-03  7836   0.267E-01    0.879E-02
RMM:   4    -0.876453628894E+02   -0.19004E-04   -0.91493E-04  7621   0.907E-02    0.761E-02
RMM:   5    -0.876453350226E+02    0.27867E-04   -0.17675E-04  6636   0.379E-02    0.538E-02
RMM:   6    -0.876453400072E+02   -0.49846E-05   -0.74478E-05  5448   0.223E-02
  26 F= -.90656478E+02 E0= -.90663607E+02  d E =-.139210E-02
       N       E                     dE             d eps       ncg     rms          rms(c)
DAV:   1    -0.876458488471E+02   -0.51382E-03   -0.85979E-02  5880   0.787E-01    0.847E-02
RMM:   2    -0.876461179812E+02   -0.26913E-03   -0.31238E-03  6122   0.171E-01    0.428E-02
RMM:   3    -0.876461886403E+02   -0.70659E-04   -0.72080E-04  7462   0.882E-02    0.223E-02
RMM:   4    -0.876462062428E+02   -0.17602E-04   -0.11803E-04  6101   0.326E-02    0.212E-02
RMM:   5    -0.876461994478E+02    0.67950E-05   -0.32959E-05  4354   0.159E-02
  27 F= -.90656861E+02 E0= -.90664024E+02  d E =-.382954E-03
       N       E                     dE             d eps       ncg     rms          rms(c)
DAV:   1    -0.876463819777E+02   -0.17573E-03   -0.20659E-01  5632   0.122E+00    0.111E-01
RMM:   2    -0.876470300724E+02   -0.64809E-03   -0.72732E-03  6113   0.266E-01    0.589E-02
RMM:   3    -0.876471925598E+02   -0.16249E-03   -0.17078E-03  7652   0.136E-01    0.361E-02
RMM:   4    -0.876472105175E+02   -0.17958E-04   -0.23923E-04  6681   0.478E-02    0.280E-02
RMM:   5    -0.876472212751E+02   -0.10758E-04   -0.75933E-05  5317   0.228E-02    0.216E-02
RMM:   6    -0.876472177715E+02    0.35036E-05   -0.27201E-05  4207   0.128E-02
  28 F= -.90657143E+02 E0= -.90664351E+02  d E =-.665337E-03
       N       E                     dE             d eps       ncg     rms          rms(c)
DAV:   1    -0.876476777238E+02   -0.45645E-03   -0.23338E-02  6400   0.404E-01    0.375E-02
RMM:   2    -0.876477349755E+02   -0.57252E-04   -0.64954E-04  5828   0.906E-02    0.170E-02
RMM:   3    -0.876477536770E+02   -0.18701E-04   -0.20026E-04  6363   0.478E-02    0.109E-02
RMM:   4    -0.876477570267E+02   -0.33497E-05   -0.37783E-05  4236   0.199E-02
  29 F= -.90657519E+02 E0= -.90664737E+02  d E =-.375867E-03
       N       E                     dE             d eps       ncg     rms          rms(c)
DAV:   1    -0.876483063218E+02   -0.55264E-03   -0.21136E-01  5768   0.121E+00    0.107E-01
RMM:   2    -0.876488152788E+02   -0.50896E-03   -0.57259E-03  5948   0.270E-01    0.486E-02
RMM:   3    -0.876489748673E+02   -0.15959E-03   -0.17683E-03  7376   0.142E-01    0.336E-02
RMM:   4    -0.876489943492E+02   -0.19482E-04   -0.23591E-04  6577   0.482E-02    0.322E-02
RMM:   5    -0.876489959440E+02   -0.15948E-05   -0.55076E-05  4967   0.214E-02
  30 F= -.90658270E+02 E0= -.90665505E+02  d E =-.112643E-02
       N       E                     dE             d eps       ncg     rms          rms(c)
DAV:   1    -0.876472180336E+02    0.17763E-02   -0.84241E-01  5600   0.242E+00    0.223E-01
RMM:   2    -0.876492485726E+02   -0.20305E-02   -0.22889E-02  6023   0.543E-01    0.100E-01
RMM:   3    -0.876499012387E+02   -0.65267E-03   -0.70710E-03  7558   0.284E-01    0.682E-02
RMM:   4    -0.876499823133E+02   -0.81075E-04   -0.96801E-04  7425   0.961E-02    0.663E-02
RMM:   5    -0.876499626887E+02    0.19625E-04   -0.19448E-04  6574   0.393E-02    0.585E-02
RMM:   6    -0.876499633798E+02   -0.69109E-06   -0.90112E-05  5020   0.220E-02
  31 F= -.90658271E+02 E0= -.90665524E+02  d E =-.112743E-02
       N       E                     dE             d eps       ncg     rms          rms(c)
DAV:   1    -0.876489384286E+02    0.10243E-02   -0.23453E-01  5872   0.128E+00    0.103E-01
RMM:   2    -0.876495201423E+02   -0.58171E-03   -0.63678E-03  6048   0.285E-01    0.472E-02
RMM:   3    -0.876497001285E+02   -0.17999E-03   -0.19267E-03  7275   0.149E-01    0.412E-02
RMM:   4    -0.876497172909E+02   -0.17162E-04   -0.25037E-04  6551   0.498E-02    0.394E-02
RMM:   5    -0.876497144407E+02    0.28502E-05   -0.46657E-05  4893   0.217E-02
  32 F= -.90658529E+02 E0= -.90665767E+02  d E =-.138538E-02
       N       E                     dE             d eps       ncg     rms          rms(c)
DAV:   1    -0.876497902743E+02   -0.72983E-04   -0.17540E-01  5720   0.106E+00    0.899E-02
RMM:   2    -0.876501971846E+02   -0.40691E-03   -0.44065E-03  5980   0.218E-01    0.397E-02
RMM:   3    -0.876503614011E+02   -0.16422E-03   -0.14000E-03  7309   0.119E-01    0.478E-02
RMM:   4    -0.876503087831E+02    0.52618E-04   -0.14378E-04  6147   0.371E-02    0.306E-02
RMM:   5    -0.876503090005E+02   -0.21742E-06   -0.36757E-05  4431   0.171E-02
  33 F= -.90658642E+02 E0= -.90665874E+02  d E =-.113510E-03
       N       E                     dE             d eps       ncg     rms          rms(c)
DAV:   1    -0.876501239283E+02    0.18485E-03   -0.21973E-02  5816   0.376E-01    0.332E-02
RMM:   2    -0.876501801881E+02   -0.56260E-04   -0.57375E-04  5661   0.771E-02    0.147E-02
RMM:   3    -0.876502033539E+02   -0.23166E-04   -0.17305E-04  5788   0.413E-02    0.180E-02
RMM:   4    -0.876501945510E+02    0.88030E-05   -0.21588E-05  3532   0.169E-02
  34 F= -.90658697E+02 E0= -.90665934E+02  d E =-.168790E-03
       N       E                     dE             d eps       ncg     rms          rms(c)
DAV:   1    -0.876506109153E+02   -0.40756E-03   -0.12719E-01  6328   0.814E-01    0.763E-02
RMM:   2    -0.876508217578E+02   -0.21084E-03   -0.22190E-03  5802   0.179E-01    0.317E-02
RMM:   3    -0.876509379218E+02   -0.11616E-03   -0.11598E-03  7218   0.104E-01    0.228E-02
RMM:   4    -0.876509461823E+02   -0.82605E-05   -0.94916E-05  5270   0.296E-02
  35 F= -.90658981E+02 E0= -.90666197E+02  d E =-.283757E-03
