       N       E                     dE             d eps       ncg     rms          rms(c)
DAV:   1     0.525003860837E+03    0.52500E+03   -0.14515E+04  2008   0.914E+02
DAV:   2     0.619768637908E+02   -0.46303E+03   -0.44632E+03  2280   0.268E+02
DAV:   3    -0.673185883526E+02   -0.12930E+03   -0.12532E+03  3800   0.148E+02
DAV:   4    -0.864527840479E+02   -0.19134E+02   -0.17644E+02  3584   0.668E+01
DAV:   5    -0.887620547426E+02   -0.23093E+01   -0.21495E+01  3392   0.215E+01    0.223E+01
RMM:   6    -0.854664043827E+02    0.32957E+01   -0.32326E+01  2443   0.333E+01    0.141E+01
RMM:   7    -0.835778369481E+02    0.18886E+01   -0.28564E+01  2820   0.194E+01    0.108E+01
RMM:   8    -0.795588573120E+02    0.40190E+01   -0.78675E+00  2459   0.152E+01    0.631E+00
RMM:   9    -0.783315983636E+02    0.12273E+01   -0.18297E+00  2484   0.834E+00    0.345E+00
RMM:  10    -0.782881790454E+02    0.43419E-01   -0.10896E+00  2770   0.384E+00    0.240E+00
RMM:  11    -0.782460209308E+02    0.42158E-01   -0.48831E-01  2722   0.294E+00    0.154E+00
RMM:  12    -0.782101604365E+02    0.35860E-01   -0.73478E-02  2477   0.138E+00    0.333E-01
RMM:  13    -0.782132447731E+02   -0.30843E-02   -0.35761E-02  2738   0.556E-01    0.231E-01
RMM:  14    -0.782136119424E+02   -0.36717E-03   -0.99374E-03  2748   0.390E-01    0.854E-02
RMM:  15    -0.782135392525E+02    0.72690E-04   -0.37729E-03  2755   0.232E-01    0.586E-02
RMM:  16    -0.782135752400E+02   -0.35988E-04   -0.16564E-03  2739   0.138E-01    0.443E-02
RMM:  17    -0.782138256132E+02   -0.25037E-03   -0.10311E-03  2588   0.974E-02    0.246E-02
RMM:  18    -0.782141540304E+02   -0.32842E-03   -0.35538E-04  2389   0.741E-02    0.229E-02
RMM:  19    -0.782145213149E+02   -0.36728E-03   -0.15428E-04  2088   0.500E-02    0.122E-02
RMM:  20    -0.782151407327E+02   -0.61942E-03   -0.93481E-05  1847   0.418E-02    0.931E-03
RMM:  21    -0.782153959538E+02   -0.25522E-03   -0.34837E-05  1590   0.319E-02    0.600E-03
RMM:  22    -0.782156264273E+02   -0.23047E-03   -0.34441E-05  1547   0.219E-02    0.370E-03
RMM:  23    -0.782156967341E+02   -0.70307E-04   -0.12387E-05  1326   0.216E-02    0.222E-03
RMM:  24    -0.782157139503E+02   -0.17216E-04   -0.66080E-06  1226   0.165E-02    0.199E-03
RMM:  25    -0.782157239828E+02   -0.10032E-04   -0.33835E-06  1195   0.134E-02    0.114E-03
RMM:  26    -0.782157275997E+02   -0.36169E-05   -0.23747E-06  1152   0.105E-02
   1 F= -.81389768E+02 E0= -.81388491E+02  d E =-.813898E+02
       N       E                     dE             d eps       ncg     rms          rms(c)
DAV:   1    -0.691572791902E+02    0.90584E+01   -0.12807E+03  2000   0.168E+02    0.197E+01
RMM:   2    -0.809742692602E+02   -0.11817E+02   -0.17678E+02  3026   0.684E+01    0.102E+01
RMM:   3    -0.821675121569E+02   -0.11932E+01   -0.40935E+01  2921   0.261E+01    0.143E+01
RMM:   4    -0.801211074220E+02    0.20464E+01   -0.14744E+01  2937   0.149E+01    0.125E+01
RMM:   5    -0.767486088875E+02    0.33725E+01   -0.57763E+00  2729   0.782E+00    0.627E+00
RMM:   6    -0.771916631276E+02   -0.44305E+00   -0.16386E+00  2831   0.436E+00    0.674E+00
RMM:   7    -0.797013609420E+02   -0.25097E+01   -0.47676E+00  3026   0.569E+00    0.123E+01
RMM:   8    -0.768867498610E+02    0.28146E+01   -0.11705E+00  2561   0.492E+00    0.450E+00
RMM:   9    -0.770254324060E+02   -0.13868E+00   -0.25783E-01  2939   0.193E+00    0.521E+00
RMM:  10    -0.767998168335E+02    0.22562E+00   -0.42299E-01  2954   0.182E+00    0.110E+00
RMM:  11    -0.768187777674E+02   -0.18961E-01   -0.16963E-01  3106   0.113E+00    0.672E-01
RMM:  12    -0.768391117972E+02   -0.20334E-01   -0.84699E-02  3398   0.650E-01    0.130E+00
RMM:  13    -0.768430463698E+02   -0.39346E-02   -0.23625E-02  3212   0.376E-01    0.145E+00
RMM:  14    -0.768344116682E+02    0.86347E-02   -0.52382E-03  2898   0.237E-01    0.117E+00
RMM:  15    -0.768333453509E+02    0.10663E-02   -0.59088E-02  3235   0.605E-01    0.115E+00
RMM:  16    -0.768261932435E+02    0.71521E-02   -0.37061E-03  2821   0.302E-01    0.711E-01
RMM:  17    -0.768228709723E+02    0.33223E-02   -0.34455E-03  2779   0.199E-01    0.890E-02
RMM:  18    -0.768246226140E+02   -0.17516E-02   -0.62748E-04  2473   0.110E-01    0.326E-01
RMM:  19    -0.768243840467E+02    0.23857E-03   -0.23594E-03  2921   0.141E-01    0.198E-01
RMM:  20    -0.768246261036E+02   -0.24206E-03   -0.31914E-04  2332   0.805E-02    0.161E-01
RMM:  21    -0.768246915110E+02   -0.65407E-04   -0.27109E-04  2322   0.659E-02    0.900E-02
RMM:  22    -0.768247552043E+02   -0.63693E-04   -0.18014E-04  2248   0.504E-02    0.308E-02
RMM:  23    -0.768248293992E+02   -0.74195E-04   -0.27537E-05  1556   0.331E-02    0.527E-02
RMM:  24    -0.768248450028E+02   -0.15604E-04   -0.18832E-05  1421   0.258E-02    0.424E-02
RMM:  25    -0.768248595575E+02   -0.14555E-04   -0.17005E-05  1350   0.242E-02    0.271E-02
RMM:  26    -0.768248603205E+02   -0.76301E-06   -0.11237E-05  1288   0.237E-02
   2 F= -.80053860E+02 E0= -.80052557E+02  d E =0.133591E+01
       N       E                     dE             d eps       ncg     rms          rms(c)
DAV:   1    -0.779359319613E+02   -0.11111E+01   -0.85316E+01  2000   0.447E+01    0.255E+00
RMM:   2    -0.782592441664E+02   -0.32331E+00   -0.35479E+00  2761   0.106E+01    0.184E+00
RMM:   3    -0.783741567237E+02   -0.11491E+00   -0.38007E-01  2707   0.283E+00    0.300E+00
RMM:   4    -0.782584371586E+02    0.11572E+00   -0.16097E-01  2827   0.172E+00    0.179E+00
RMM:   5    -0.782438596745E+02    0.14577E-01   -0.40309E-02  2779   0.762E-01    0.953E-01
RMM:   6    -0.782362303620E+02    0.76293E-02   -0.24263E-02  2641   0.802E-01    0.544E-01
RMM:   7    -0.782328929842E+02    0.33374E-02   -0.28036E-02  2782   0.710E-01    0.215E-01
RMM:   8    -0.782329615233E+02   -0.68539E-04   -0.42931E-03  2901   0.261E-01    0.117E-01
RMM:   9    -0.782328720322E+02    0.89491E-04   -0.11852E-03  2823   0.146E-01    0.680E-02
RMM:  10    -0.782328946885E+02   -0.22656E-04   -0.62978E-04  2774   0.977E-02    0.385E-02
RMM:  11    -0.782329087066E+02   -0.14018E-04   -0.24826E-04  2368   0.609E-02    0.144E-02
RMM:  12    -0.782329283534E+02   -0.19647E-04   -0.74510E-05  1867   0.419E-02    0.805E-03
RMM:  13    -0.782329567616E+02   -0.28408E-04   -0.23878E-05  1419   0.296E-02    0.512E-03
RMM:  14    -0.782329874336E+02   -0.30672E-04   -0.11368E-05  1217   0.281E-02    0.281E-03
RMM:  15    -0.782330260983E+02   -0.38665E-04   -0.11329E-05  1229   0.229E-02    0.221E-03
RMM:  16    -0.782330671383E+02   -0.41040E-04   -0.12551E-05  1275   0.233E-02    0.171E-03
RMM:  17    -0.782330860984E+02   -0.18960E-04   -0.96257E-06  1252   0.206E-02    0.126E-03
RMM:  18    -0.782331001200E+02   -0.14022E-04   -0.75025E-06  1228   0.181E-02    0.119E-03
RMM:  19    -0.782331054611E+02   -0.53411E-05   -0.47099E-06  1190   0.155E-02
   3 F= -.81441721E+02 E0= -.81440166E+02  d E =-.519537E-01
       N       E                     dE             d eps       ncg     rms          rms(c)
DAV:   1    -0.790456221320E+02   -0.81252E+00   -0.48309E+01  2000   0.345E+01    0.195E+00
RMM:   2    -0.792248965902E+02   -0.17927E+00   -0.20402E+00  2769   0.794E+00    0.117E+00
RMM:   3    -0.792581017198E+02   -0.33205E-01   -0.20007E-01  2670   0.213E+00    0.154E+00
RMM:   4    -0.792300654959E+02    0.28036E-01   -0.74722E-02  2808   0.127E+00    0.143E+00
RMM:   5    -0.792167354167E+02    0.13330E-01   -0.26945E-02  2701   0.651E-01    0.539E-01
RMM:   6    -0.792130589065E+02    0.36765E-02   -0.12603E-02  2633   0.618E-01    0.340E-01
RMM:   7    -0.792114336091E+02    0.16253E-02   -0.10267E-02  2734   0.439E-01    0.810E-02
RMM:   8    -0.792116661144E+02   -0.23251E-03   -0.20284E-03  2960   0.166E-01    0.614E-02
RMM:   9    -0.792116878910E+02   -0.21777E-04   -0.41393E-04  2555   0.912E-02    0.403E-02
RMM:  10    -0.792116972761E+02   -0.93850E-05   -0.17191E-04  2229   0.694E-02    0.141E-02
RMM:  11    -0.792117191717E+02   -0.21896E-04   -0.93863E-05  2022   0.382E-02    0.759E-03
RMM:  12    -0.792117415812E+02   -0.22410E-04   -0.14820E-05  1252   0.329E-02    0.477E-03
RMM:  13    -0.792117711192E+02   -0.29538E-04   -0.10837E-05  1221   0.265E-02    0.329E-03
RMM:  14    -0.792117948835E+02   -0.23764E-04   -0.79654E-06  1201   0.217E-02    0.290E-03
RMM:  15    -0.792118359756E+02   -0.41092E-04   -0.98774E-06  1240   0.215E-02    0.293E-03
RMM:  16    -0.792118667992E+02   -0.30824E-04   -0.12359E-05  1298   0.210E-02    0.196E-03
RMM:  17    -0.792118773226E+02   -0.10523E-04   -0.69318E-06  1232   0.184E-02    0.134E-03
RMM:  18    -0.792118846822E+02   -0.73596E-05   -0.47532E-06  1203   0.144E-02
   4 F= -.82405964E+02 E0= -.82404386E+02  d E =-.101620E+01
       N       E                     dE             d eps       ncg     rms          rms(c)
DAV:   1    -0.797284993306E+02   -0.51662E+00   -0.17235E+02  2000   0.657E+01    0.532E+00
RMM:   2    -0.806585547774E+02   -0.93006E+00   -0.96732E+00  2765   0.171E+01    0.371E+00
RMM:   3    -0.811355834263E+02   -0.47703E+00   -0.10276E+00  2641   0.515E+00    0.426E+00
RMM:   4    -0.805431470044E+02    0.59244E+00   -0.39678E-01  2674   0.360E+00    0.141E+00
RMM:   5    -0.805226856446E+02    0.20461E-01   -0.10321E-01  2607   0.171E+00    0.116E+00
RMM:   6    -0.805080735740E+02    0.14612E-01   -0.69053E-02  2710   0.121E+00    0.509E-01
RMM:   7    -0.805037044376E+02    0.43691E-02   -0.30155E-02  2764   0.761E-01    0.163E-01
RMM:   8    -0.805037345245E+02   -0.30087E-04   -0.46016E-03  2722   0.342E-01    0.119E-01
RMM:   9    -0.805037743447E+02   -0.39820E-04   -0.16791E-03  2849   0.163E-01    0.570E-02
RMM:  10    -0.805038162569E+02   -0.41912E-04   -0.50274E-04  2670   0.101E-01    0.317E-02
RMM:  11    -0.805038459538E+02   -0.29697E-04   -0.19164E-04  2284   0.598E-02    0.145E-02
RMM:  12    -0.805039180187E+02   -0.72065E-04   -0.69931E-05  1864   0.405E-02    0.875E-03
RMM:  13    -0.805040052232E+02   -0.87204E-04   -0.29259E-05  1419   0.323E-02    0.506E-03
RMM:  14    -0.805041273345E+02   -0.12211E-03   -0.27793E-05  1426   0.317E-02    0.423E-03
RMM:  15    -0.805042311936E+02   -0.10386E-03   -0.30276E-05  1439   0.288E-02    0.259E-03
RMM:  16    -0.805042734608E+02   -0.42267E-04   -0.13937E-05  1277   0.269E-02    0.161E-03
RMM:  17    -0.805043032138E+02   -0.29753E-04   -0.11738E-05  1287   0.208E-02    0.133E-03
RMM:  18    -0.805043264766E+02   -0.23263E-04   -0.76047E-06  1248   0.178E-02    0.994E-04
RMM:  19    -0.805043332172E+02   -0.67406E-05   -0.42068E-06  1205   0.147E-02
   5 F= -.83686213E+02 E0= -.83684641E+02  d E =-.229645E+01
       N       E                     dE             d eps       ncg     rms          rms(c)
DAV:   1    -0.804459598233E+02    0.58367E-01   -0.14075E+01  2064   0.194E+01    0.145E+00
RMM:   2    -0.805036398977E+02   -0.57680E-01   -0.69799E-01  2803   0.468E+00    0.725E-01
RMM:   3    -0.805273640372E+02   -0.23724E-01   -0.77586E-02  2799   0.133E+00    0.155E+00
RMM:   4    -0.804963273044E+02    0.31037E-01   -0.20518E-02  2698   0.704E-01    0.371E-01
RMM:   5    -0.804989272582E+02   -0.26000E-02   -0.17306E-02  2775   0.623E-01    0.258E-01
RMM:   6    -0.804956273974E+02    0.32999E-02   -0.37233E-03  2473   0.391E-01    0.966E-02
RMM:   7    -0.804957086078E+02   -0.81210E-04   -0.17744E-03  2738   0.156E-01    0.614E-02
RMM:   8    -0.804957007704E+02    0.78374E-05   -0.38981E-04  2315   0.108E-01    0.365E-02
RMM:   9    -0.804957157474E+02   -0.14977E-04   -0.13293E-04  1992   0.596E-02    0.127E-02
RMM:  10    -0.804957344702E+02   -0.18723E-04   -0.72316E-05  1697   0.431E-02    0.595E-03
RMM:  11    -0.804957497637E+02   -0.15294E-04   -0.15960E-05  1311   0.243E-02    0.355E-03
RMM:  12    -0.804957715684E+02   -0.21805E-04   -0.65695E-06  1201   0.202E-02    0.236E-03
RMM:  13    -0.804957954689E+02   -0.23900E-04   -0.63209E-06  1209   0.173E-02    0.206E-03
RMM:  14    -0.804958179116E+02   -0.22443E-04   -0.57154E-06  1226   0.147E-02    0.151E-03
RMM:  15    -0.804958330907E+02   -0.15179E-04   -0.53319E-06  1236   0.137E-02    0.144E-03
RMM:  16    -0.804958428141E+02   -0.97234E-05   -0.45521E-06  1230   0.131E-02
   6 F= -.83675094E+02 E0= -.83673573E+02  d E =-.228533E+01
       N       E                     dE             d eps       ncg     rms          rms(c)
DAV:   1    -0.805165881749E+02   -0.20755E-01   -0.47468E+00  2176   0.113E+01    0.828E-01
RMM:   2    -0.805375641797E+02   -0.20976E-01   -0.25055E-01  2807   0.275E+00    0.503E-01
RMM:   3    -0.805492562858E+02   -0.11692E-01   -0.30603E-02  2797   0.824E-01    0.105E+00
RMM:   4    -0.805331773622E+02    0.16079E-01   -0.94044E-03  2655   0.481E-01    0.262E-01
RMM:   5    -0.805344234792E+02   -0.12461E-02   -0.71569E-03  2757   0.398E-01    0.181E-01
RMM:   6    -0.805330828716E+02    0.13406E-02   -0.18150E-03  2500   0.262E-01    0.755E-02
RMM:   7    -0.805331421007E+02   -0.59229E-04   -0.67055E-04  2462   0.108E-01    0.440E-02
RMM:   8    -0.805331738882E+02   -0.31787E-04   -0.18993E-04  2050   0.825E-02    0.227E-02
RMM:   9    -0.805332024233E+02   -0.28535E-04   -0.62086E-05  1646   0.433E-02    0.778E-03
RMM:  10    -0.805332244339E+02   -0.22011E-04   -0.27344E-05  1514   0.285E-02    0.337E-03
RMM:  11    -0.805332400756E+02   -0.15642E-04   -0.90203E-06  1220   0.208E-02    0.225E-03
RMM:  12    -0.805332589358E+02   -0.18860E-04   -0.59678E-06  1207   0.164E-02    0.171E-03
RMM:  13    -0.805332745996E+02   -0.15664E-04   -0.51081E-06  1209   0.157E-02    0.137E-03
RMM:  14    -0.805332846138E+02   -0.10014E-04   -0.42269E-06  1209   0.125E-02    0.100E-03
RMM:  15    -0.805332928666E+02   -0.82527E-05   -0.44328E-06  1207   0.119E-02
   7 F= -.83714013E+02 E0= -.83712460E+02  d E =-.232424E+01
       N       E                     dE             d eps       ncg     rms          rms(c)
DAV:   1    -0.793915633630E+02    0.11417E+01   -0.24043E+02  2000   0.759E+01    0.720E+00
RMM:   2    -0.821769437171E+02   -0.27854E+01   -0.19421E+01  2799   0.216E+01    0.882E+00
RMM:   3    -0.807702954629E+02    0.14066E+01   -0.36410E+00  2735   0.861E+00    0.375E+00
RMM:   4    -0.803237096760E+02    0.44659E+00   -0.11194E+00  2675   0.530E+00    0.254E+00
RMM:   5    -0.802720540039E+02    0.51656E-01   -0.31514E-01  2860   0.212E+00    0.197E+00
RMM:   6    -0.802101734200E+02    0.61881E-01   -0.27190E-01  2804   0.195E+00    0.670E-01
RMM:   7    -0.802187657866E+02   -0.85924E-02   -0.97452E-02  2867   0.112E+00    0.634E-01
RMM:   8    -0.802123022153E+02    0.64636E-02   -0.11889E-02  2834   0.511E-01    0.416E-01
RMM:   9    -0.802103523399E+02    0.19499E-02   -0.22958E-02  2880   0.487E-01    0.111E-01
RMM:  10    -0.802131641930E+02   -0.28119E-02   -0.20015E-02  3078   0.398E-01    0.186E-01
RMM:  11    -0.802125330459E+02    0.63115E-03   -0.23490E-03  2772   0.154E-01    0.167E-01
RMM:  12    -0.802125167931E+02    0.16253E-04   -0.11748E-03  2897   0.826E-02    0.172E-01
RMM:  13    -0.802125736585E+02   -0.56865E-04   -0.60129E-04  2377   0.579E-02    0.179E-01
RMM:  14    -0.802117299291E+02    0.84373E-03   -0.68278E-04  2758   0.763E-02    0.124E-01
RMM:  15    -0.802126414908E+02   -0.91156E-03   -0.20625E-02  3590   0.328E-01    0.169E-01
RMM:  16    -0.802115416643E+02    0.10998E-02   -0.47436E-03  3339   0.214E-01    0.172E-02
RMM:  17    -0.802122426453E+02   -0.70098E-03   -0.39676E-03  3179   0.152E-01    0.111E-01
RMM:  18    -0.802120632285E+02    0.17942E-03   -0.31101E-04  2509   0.814E-02    0.909E-02
RMM:  19    -0.802118251165E+02    0.23811E-03   -0.11531E-03  2954   0.948E-02    0.198E-02
RMM:  20    -0.802119250183E+02   -0.99902E-04   -0.50274E-04  2697   0.671E-02    0.886E-03
RMM:  21    -0.802119764457E+02   -0.51427E-04   -0.24138E-04  2203   0.467E-02    0.239E-02
RMM:  22    -0.802119822439E+02   -0.57982E-05   -0.31553E-05  1497   0.343E-02
   8 F= -.83426420E+02 E0= -.83427704E+02  d E =0.287593E+00
       N       E                     dE             d eps       ncg     rms          rms(c)
DAV:   1    -0.804346794782E+02   -0.22270E+00   -0.11851E+01  2000   0.168E+01    0.101E+00
RMM:   2    -0.804998167159E+02   -0.65137E-01   -0.55560E-01  2776   0.447E+00    0.105E+00
RMM:   3    -0.804885718654E+02    0.11245E-01   -0.11597E-01  2853   0.138E+00    0.626E-01
RMM:   4    -0.804810301857E+02    0.75417E-02   -0.29148E-02  2797   0.800E-01    0.376E-01
RMM:   5    -0.804773179482E+02    0.37122E-02   -0.65862E-03  2587   0.454E-01    0.209E-01
RMM:   6    -0.804765303438E+02    0.78760E-03   -0.40429E-03  2825   0.250E-01    0.848E-02
RMM:   7    -0.804765310094E+02   -0.66559E-06   -0.17742E-03  2835   0.159E-01    0.486E-02
RMM:   8    -0.804765453403E+02   -0.14331E-04   -0.34660E-04  2556   0.907E-02    0.327E-02
RMM:   9    -0.804765765789E+02   -0.31239E-04   -0.11319E-04  1998   0.529E-02    0.143E-02
RMM:  10    -0.804766121783E+02   -0.35599E-04   -0.47437E-05  1726   0.396E-02    0.718E-03
RMM:  11    -0.804766326716E+02   -0.20493E-04   -0.15167E-05  1313   0.296E-02    0.591E-03
RMM:  12    -0.804766935452E+02   -0.60874E-04   -0.22081E-05  1367   0.248E-02    0.406E-03
RMM:  13    -0.804767528468E+02   -0.59302E-04   -0.23191E-05  1395   0.268E-02    0.303E-03
RMM:  14    -0.804767815244E+02   -0.28678E-04   -0.98421E-06  1255   0.233E-02    0.244E-03
RMM:  15    -0.804768283840E+02   -0.46860E-04   -0.13807E-05  1341   0.179E-02    0.188E-03
RMM:  16    -0.804768375311E+02   -0.91470E-05   -0.52582E-06  1210   0.175E-02
   9 F= -.83672220E+02 E0= -.83673515E+02  d E =0.417927E-01
       N       E                     dE             d eps       ncg     rms          rms(c)
DAV:   1    -0.807001339674E+02   -0.22331E+00   -0.97423E+00  2000   0.151E+01    0.145E+00
RMM:   2    -0.809404075224E+02   -0.24027E+00   -0.66209E-01  2794   0.431E+00    0.272E+00
RMM:   3    -0.807270218981E+02    0.21339E+00   -0.15013E-01  2647   0.195E+00    0.591E-01
RMM:   4    -0.807241190847E+02    0.29028E-02   -0.50064E-02  2715   0.111E+00    0.388E-01
RMM:   5    -0.807209994096E+02    0.31197E-02   -0.11978E-02  2727   0.465E-01    0.234E-01
RMM:   6    -0.807204011086E+02    0.59830E-03   -0.48675E-03  2755   0.325E-01    0.136E-01
RMM:   7    -0.807201301791E+02    0.27093E-03   -0.11812E-03  2707   0.176E-01    0.559E-02
RMM:   8    -0.807201608581E+02   -0.30679E-04   -0.50018E-04  2654   0.665E-02    0.238E-02
RMM:   9    -0.807201811741E+02   -0.20316E-04   -0.10910E-04  2052   0.578E-02    0.120E-02
RMM:  10    -0.807201984135E+02   -0.17239E-04   -0.35597E-05  1585   0.345E-02    0.783E-03
RMM:  11    -0.807202224870E+02   -0.24074E-04   -0.18112E-05  1356   0.337E-02    0.450E-03
RMM:  12    -0.807202506183E+02   -0.28131E-04   -0.10558E-05  1226   0.212E-02    0.472E-03
RMM:  13    -0.807202800041E+02   -0.29386E-04   -0.84794E-06  1228   0.223E-02    0.334E-03
RMM:  14    -0.807203142990E+02   -0.34295E-04   -0.10828E-05  1266   0.172E-02    0.195E-03
RMM:  15    -0.807203311828E+02   -0.16884E-04   -0.58015E-06  1223   0.192E-02    0.186E-03
RMM:  16    -0.807203436688E+02   -0.12486E-04   -0.46830E-06  1208   0.117E-02    0.983E-04
RMM:  17    -0.807203503021E+02   -0.66333E-05   -0.28833E-06  1198   0.130E-02
  10 F= -.83910285E+02 E0= -.83910425E+02  d E =-.196273E+00
       N       E                     dE             d eps       ncg     rms          rms(c)
DAV:   1    -0.809347472903E+02   -0.21440E+00   -0.20331E+01  2000   0.215E+01    0.286E+00
RMM:   2    -0.821344867358E+02   -0.11997E+01   -0.19739E+00  2787   0.674E+00    0.621E+00
RMM:   3    -0.809439818918E+02    0.11905E+01   -0.55567E-01  2537   0.406E+00    0.149E+00
RMM:   4    -0.809258445483E+02    0.18137E-01   -0.19060E-01  2665   0.218E+00    0.687E-01
RMM:   5    -0.809201319743E+02    0.57126E-02   -0.57414E-02  2793   0.894E-01    0.428E-01
RMM:   6    -0.809199517272E+02    0.18025E-03   -0.11805E-02  2723   0.497E-01    0.276E-01
RMM:   7    -0.809191852133E+02    0.76651E-03   -0.39248E-03  2809   0.269E-01    0.121E-01
RMM:   8    -0.809191989642E+02   -0.13751E-04   -0.14079E-03  2814   0.111E-01    0.307E-02
RMM:   9    -0.809192428562E+02   -0.43892E-04   -0.33685E-04  2437   0.783E-02    0.233E-02
RMM:  10    -0.809192427712E+02    0.84960E-07   -0.90030E-05  1915   0.439E-02
  11 F= -.84104413E+02 E0= -.84103219E+02  d E =-.390400E+00
       N       E                     dE             d eps       ncg     rms          rms(c)
DAV:   1    -0.809169516347E+02    0.22912E-02   -0.63834E+01  2000   0.415E+01    0.337E+00
RMM:   2    -0.817738410939E+02   -0.85689E+00   -0.49532E+00  2812   0.108E+01    0.631E+00
RMM:   3    -0.812340234434E+02    0.53982E+00   -0.58675E-01  2699   0.407E+00    0.166E+00
RMM:   4    -0.811746819380E+02    0.59342E-01   -0.17370E-01  2636   0.246E+00    0.115E+00
RMM:   5    -0.811435903875E+02    0.31092E-01   -0.39005E-02  2482   0.128E+00    0.682E-01
RMM:   6    -0.811354268100E+02    0.81636E-02   -0.39580E-02  2799   0.822E-01    0.157E-01
RMM:   7    -0.811360982457E+02   -0.67144E-03   -0.81354E-03  2905   0.361E-01    0.913E-02
RMM:   8    -0.811361379108E+02   -0.39665E-04   -0.17490E-03  2755   0.175E-01    0.607E-02
RMM:   9    -0.811361781433E+02   -0.40232E-04   -0.71387E-04  2705   0.106E-01    0.230E-02
RMM:  10    -0.811362355304E+02   -0.57387E-04   -0.20113E-04  2221   0.669E-02    0.116E-02
RMM:  11    -0.811362663626E+02   -0.30832E-04   -0.56607E-05  1739   0.423E-02    0.872E-03
RMM:  12    -0.811363230027E+02   -0.56640E-04   -0.22950E-05  1411   0.286E-02    0.393E-03
RMM:  13    -0.811363514564E+02   -0.28454E-04   -0.88980E-06  1227   0.224E-02    0.242E-03
RMM:  14    -0.811363808150E+02   -0.29359E-04   -0.74446E-06  1229   0.190E-02    0.269E-03
RMM:  15    -0.811364009928E+02   -0.20178E-04   -0.58421E-06  1230   0.160E-02    0.132E-03
RMM:  16    -0.811364257023E+02   -0.24709E-04   -0.81821E-06  1273   0.133E-02    0.175E-03
RMM:  17    -0.811364412275E+02   -0.15525E-04   -0.75043E-06  1265   0.145E-02    0.137E-03
RMM:  18    -0.811364437497E+02   -0.25222E-05   -0.35315E-06  1160   0.117E-02
  12 F= -.84328450E+02 E0= -.84330812E+02  d E =-.224038E+00
       N       E                     dE             d eps       ncg     rms          rms(c)
DAV:   1    -0.811453229586E+02   -0.88817E-02   -0.19824E+00  2096   0.714E+00    0.532E-01
RMM:   2    -0.811715043458E+02   -0.26181E-01   -0.13622E-01  2801   0.197E+00    0.872E-01
RMM:   3    -0.811520938765E+02    0.19410E-01   -0.18364E-02  2662   0.721E-01    0.265E-01
RMM:   4    -0.811518894052E+02    0.20447E-03   -0.70471E-03  2674   0.451E-01    0.190E-01
RMM:   5    -0.811509047331E+02    0.98467E-03   -0.18649E-03  2578   0.244E-01    0.934E-02
RMM:   6    -0.811508859385E+02    0.18795E-04   -0.83778E-04  2675   0.121E-01    0.332E-02
RMM:   7    -0.811509055376E+02   -0.19599E-04   -0.18321E-04  2209   0.643E-02    0.187E-02
RMM:   8    -0.811509128098E+02   -0.72722E-05   -0.40282E-05  1566   0.461E-02
  13 F= -.84341695E+02 E0= -.84343777E+02  d E =-.237283E+00
       N       E                     dE             d eps       ncg     rms          rms(c)
DAV:   1    -0.811199365641E+02    0.30969E-01   -0.32859E+01  2000   0.287E+01    0.158E+00
RMM:   2    -0.812402986487E+02   -0.12036E+00   -0.13322E+00  2661   0.715E+00    0.886E-01
RMM:   3    -0.812863659119E+02   -0.46067E-01   -0.24223E-01  2794   0.223E+00    0.150E+00
RMM:   4    -0.812422394571E+02    0.44126E-01   -0.46239E-02  2786   0.110E+00    0.558E-01
RMM:   5    -0.812431966293E+02   -0.95717E-03   -0.10664E-02  2699   0.531E-01    0.336E-01
RMM:   6    -0.812435653795E+02   -0.36875E-03   -0.96530E-03  2699   0.477E-01    0.178E-01
RMM:   7    -0.812424932802E+02    0.10721E-02   -0.18567E-03  2547   0.262E-01    0.519E-02
RMM:   8    -0.812425274814E+02   -0.34201E-04   -0.73674E-04  2618   0.119E-01    0.328E-02
RMM:   9    -0.812425344812E+02   -0.69997E-05   -0.22427E-04  2344   0.578E-02    0.138E-02
RMM:  10    -0.812425425146E+02   -0.80335E-05   -0.61846E-05  1763   0.455E-02
  14 F= -.84438316E+02 E0= -.84440976E+02  d E =-.966210E-01
       N       E                     dE             d eps       ncg     rms          rms(c)
DAV:   1    -0.812489860288E+02   -0.64515E-02   -0.19289E+00  2000   0.694E+00    0.367E-01
RMM:   2    -0.812560534531E+02   -0.70674E-02   -0.72887E-02  2740   0.161E+00    0.291E-01
RMM:   3    -0.812568039478E+02   -0.75049E-03   -0.10296E-02  2796   0.482E-01    0.275E-01
RMM:   4    -0.812549122420E+02    0.18917E-02   -0.22156E-03  2748   0.252E-01    0.117E-01
RMM:   5    -0.812549473380E+02   -0.35096E-04   -0.74533E-04  2477   0.157E-01    0.851E-02
RMM:   6    -0.812548605560E+02    0.86782E-04   -0.46182E-04  2451   0.112E-01    0.189E-02
RMM:   7    -0.812548693019E+02   -0.87458E-05   -0.11148E-04  2009   0.610E-02    0.110E-02
RMM:   8    -0.812548685864E+02    0.71544E-06   -0.20205E-05  1363   0.350E-02
  15 F= -.84449403E+02 E0= -.84451934E+02  d E =-.107708E+00
       N       E                     dE             d eps       ncg     rms          rms(c)
DAV:   1    -0.813434648409E+02   -0.88596E-01   -0.10646E+01  2000   0.169E+01    0.968E-01
RMM:   2    -0.813823981638E+02   -0.38933E-01   -0.39709E-01  2718   0.416E+00    0.720E-01
RMM:   3    -0.813879213979E+02   -0.55232E-02   -0.80296E-02  2785   0.135E+00    0.603E-01
RMM:   4    -0.813771581522E+02    0.10763E-01   -0.13850E-02  2629   0.691E-01    0.284E-01
RMM:   5    -0.813765163615E+02    0.64179E-03   -0.43704E-03  2618   0.376E-01    0.195E-01
RMM:   6    -0.813763088618E+02    0.20750E-03   -0.23980E-03  2662   0.209E-01    0.579E-02
RMM:   7    -0.813763067353E+02    0.21264E-05   -0.48616E-04  2651   0.113E-01    0.225E-02
RMM:   8    -0.813763106429E+02   -0.39076E-05   -0.11767E-04  1946   0.569E-02    0.140E-02
RMM:   9    -0.813763139451E+02   -0.33022E-05   -0.42273E-05  1631   0.334E-02
  16 F= -.84575428E+02 E0= -.84578703E+02  d E =-.126025E+00
       N       E                     dE             d eps       ncg     rms          rms(c)
DAV:   1    -0.813205869254E+02    0.55724E-01   -0.48006E+01  2000   0.357E+01    0.199E+00
RMM:   2    -0.814782006577E+02   -0.15761E+00   -0.17977E+00  2681   0.910E+00    0.977E-01
RMM:   3    -0.815152726987E+02   -0.37072E-01   -0.32690E-01  2777   0.263E+00    0.942E-01
RMM:   4    -0.814973914426E+02    0.17881E-01   -0.66746E-02  2729   0.130E+00    0.623E-01
RMM:   5    -0.814935501705E+02    0.38413E-02   -0.16146E-02  2702   0.675E-01    0.379E-01
RMM:   6    -0.814922372382E+02    0.13129E-02   -0.71005E-03  2645   0.447E-01    0.123E-01
RMM:   7    -0.814922081800E+02    0.29058E-04   -0.24374E-03  2682   0.247E-01    0.602E-02
RMM:   8    -0.814921915698E+02    0.16610E-04   -0.56525E-04  2433   0.131E-01    0.305E-02
RMM:   9    -0.814922086649E+02   -0.17095E-04   -0.24797E-04  2339   0.596E-02    0.185E-02
RMM:  10    -0.814922156254E+02   -0.69605E-05   -0.71233E-05  1839   0.443E-02
  17 F= -.84701914E+02 E0= -.84704305E+02  d E =-.252510E+00
       N       E                     dE             d eps       ncg     rms          rms(c)
DAV:   1    -0.815001943257E+02   -0.79857E-02   -0.21392E+01  2000   0.232E+01    0.107E+00
RMM:   2    -0.815640846797E+02   -0.63890E-01   -0.68986E-01  2710   0.537E+00    0.525E-01
RMM:   3    -0.815696466555E+02   -0.55620E-02   -0.93634E-02  2802   0.140E+00    0.358E-01
RMM:   4    -0.815735015663E+02   -0.38549E-02   -0.21443E-02  2812   0.680E-01    0.372E-01
RMM:   5    -0.815696541694E+02    0.38474E-02   -0.56702E-03  2710   0.390E-01    0.137E-01
RMM:   6    -0.815695857324E+02    0.68437E-04   -0.18658E-03  2525   0.261E-01    0.562E-02
RMM:   7    -0.815695978519E+02   -0.12120E-04   -0.65340E-04  2594   0.124E-01    0.288E-02
RMM:   8    -0.815695986523E+02   -0.80045E-06   -0.18136E-04  2190   0.615E-02    0.163E-02
RMM:   9    -0.815695964814E+02    0.21709E-05   -0.42093E-05  1610   0.440E-02
  18 F= -.84783582E+02 E0= -.84785967E+02  d E =-.816684E-01
       N       E                     dE             d eps       ncg     rms          rms(c)
DAV:   1    -0.815202091475E+02    0.49390E-01   -0.28738E+01  2000   0.266E+01    0.126E+00
RMM:   2    -0.816051929120E+02   -0.84984E-01   -0.92359E-01  2728   0.622E+00    0.627E-01
RMM:   3    -0.816126368196E+02   -0.74439E-02   -0.13128E-01  2814   0.162E+00    0.415E-01
RMM:   4    -0.816191243976E+02   -0.64876E-02   -0.29882E-02  2805   0.804E-01    0.456E-01
RMM:   5    -0.816129124336E+02    0.62120E-02   -0.78581E-03  2721   0.455E-01    0.172E-01
RMM:   6    -0.816128518578E+02    0.60576E-04   -0.30227E-03  2610   0.304E-01    0.721E-02
RMM:   7    -0.816128260294E+02    0.25828E-04   -0.78651E-04  2620   0.145E-01    0.451E-02
RMM:   8    -0.816128212582E+02    0.47713E-05   -0.26582E-04  2337   0.762E-02    0.227E-02
RMM:   9    -0.816128187990E+02    0.24592E-05   -0.64821E-05  1762   0.513E-02
  19 F= -.84833378E+02 E0= -.84835641E+02  d E =-.131464E+00
       N       E                     dE             d eps       ncg     rms          rms(c)
DAV:   1    -0.815977975683E+02    0.15024E-01   -0.57152E+00  2000   0.117E+01    0.542E-01
RMM:   2    -0.816128621908E+02   -0.15065E-01   -0.16510E-01  2720   0.265E+00    0.280E-01
RMM:   3    -0.816158177751E+02   -0.29556E-02   -0.27882E-02  2798   0.744E-01    0.274E-01
RMM:   4    -0.816147659120E+02    0.10519E-02   -0.56106E-03  2793   0.360E-01    0.158E-01
RMM:   5    -0.816146600509E+02    0.10586E-03   -0.12962E-03  2584   0.208E-01    0.736E-02
RMM:   6    -0.816146200994E+02    0.39952E-04   -0.43715E-04  2332   0.137E-01    0.388E-02
RMM:   7    -0.816146280822E+02   -0.79828E-05   -0.22054E-04  2268   0.751E-02    0.158E-02
RMM:   8    -0.816146307882E+02   -0.27060E-05   -0.57608E-05  1678   0.486E-02
  20 F= -.84838718E+02 E0= -.84840887E+02  d E =-.136804E+00
       N       E                     dE             d eps       ncg     rms          rms(c)
DAV:   1    -0.816354838620E+02   -0.20856E-01   -0.25028E+00  2048   0.774E+00    0.400E-01
RMM:   2    -0.816411142398E+02   -0.56304E-02   -0.68337E-02  2712   0.177E+00    0.219E-01
RMM:   3    -0.816420927236E+02   -0.97848E-03   -0.14045E-02  2796   0.516E-01    0.125E-01
RMM:   4    -0.816427040590E+02   -0.61134E-03   -0.28608E-03  2784   0.252E-01    0.124E-01
RMM:   5    -0.816422673479E+02    0.43671E-03   -0.65449E-04  2624   0.138E-01    0.591E-02
RMM:   6    -0.816422569280E+02    0.10420E-04   -0.31347E-04  2320   0.102E-01    0.253E-02
RMM:   7    -0.816422587440E+02   -0.18160E-05   -0.59920E-05  1732   0.576E-02
  21 F= -.84868499E+02 E0= -.84870551E+02  d E =-.297812E-01
       N       E                     dE             d eps       ncg     rms          rms(c)
DAV:   1    -0.816433842381E+02   -0.11273E-02   -0.22296E+01  2000   0.231E+01    0.123E+00
RMM:   2    -0.816956947291E+02   -0.52310E-01   -0.63630E-01  2719   0.539E+00    0.669E-01
RMM:   3    -0.817042784056E+02   -0.85837E-02   -0.13134E-01  2806   0.157E+00    0.392E-01
RMM:   4    -0.817086969775E+02   -0.44186E-02   -0.21914E-02  2764   0.723E-01    0.436E-01
RMM:   5    -0.817054589796E+02    0.32380E-02   -0.64986E-03  2744   0.398E-01    0.177E-01
RMM:   6    -0.817049845575E+02    0.47442E-03   -0.23096E-03  2522   0.310E-01    0.869E-02
RMM:   7    -0.817049936366E+02   -0.90791E-05   -0.14374E-03  2718   0.158E-01    0.554E-02
RMM:   8    -0.817049174963E+02    0.76140E-04   -0.22027E-04  2126   0.104E-01    0.239E-02
RMM:   9    -0.817049245345E+02   -0.70382E-05   -0.16872E-04  2130   0.588E-02    0.117E-02
RMM:  10    -0.817049425113E+02   -0.17977E-04   -0.52071E-05  1684   0.423E-02    0.917E-03
RMM:  11    -0.817049500014E+02   -0.74901E-05   -0.11704E-05  1245   0.305E-02
  22 F= -.84938559E+02 E0= -.84940212E+02  d E =-.998415E-01
       N       E                     dE             d eps       ncg     rms          rms(c)
DAV:   1    -0.814617305747E+02    0.24321E+00   -0.86687E+01  2000   0.451E+01    0.257E+00
RMM:   2    -0.817063864678E+02   -0.24466E+00   -0.29576E+00  2736   0.110E+01    0.139E+00
RMM:   3    -0.817386938578E+02   -0.32307E-01   -0.41442E-01  2819   0.292E+00    0.112E+00
RMM:   4    -0.817444664672E+02   -0.57726E-02   -0.90324E-02  2791   0.140E+00    0.110E+00
RMM:   5    -0.817272441998E+02    0.17222E-01   -0.35110E-02  2677   0.991E-01    0.438E-01
RMM:   6    -0.817240862795E+02    0.31579E-02   -0.88434E-03  2441   0.631E-01    0.198E-01
RMM:   7    -0.817240271740E+02    0.59105E-04   -0.77292E-03  2777   0.397E-01    0.119E-01
RMM:   8    -0.817237260428E+02    0.30113E-03   -0.11495E-03  2350   0.224E-01    0.535E-02
RMM:   9    -0.817237354563E+02   -0.94135E-05   -0.70932E-04  2570   0.880E-02    0.226E-02
RMM:  10    -0.817237716344E+02   -0.36178E-04   -0.17155E-04  2196   0.646E-02    0.151E-02
RMM:  11    -0.817237899592E+02   -0.18325E-04   -0.48093E-05  1675   0.406E-02    0.675E-03
RMM:  12    -0.817238034517E+02   -0.13493E-04   -0.11485E-05  1237   0.293E-02    0.377E-03
RMM:  13    -0.817238249185E+02   -0.21467E-04   -0.64167E-06  1210   0.200E-02    0.221E-03
RMM:  14    -0.817238505840E+02   -0.25666E-04   -0.58825E-06  1222   0.175E-02    0.208E-03
RMM:  15    -0.817238646161E+02   -0.14032E-04   -0.39364E-06  1214   0.152E-02    0.157E-03
RMM:  16    -0.817238848633E+02   -0.20247E-04   -0.64933E-06  1251   0.145E-02    0.254E-03
RMM:  17    -0.817238884870E+02   -0.36237E-05   -0.30267E-06  1214   0.140E-02
  23 F= -.84968502E+02 E0= -.84969480E+02  d E =-.129784E+00
       N       E                     dE             d eps       ncg     rms          rms(c)
DAV:   1    -0.817101858097E+02    0.13699E-01   -0.91569E+00  2000   0.143E+01    0.759E-01
RMM:   2    -0.817305834530E+02   -0.20398E-01   -0.24230E-01  2707   0.342E+00    0.441E-01
RMM:   3    -0.817387491071E+02   -0.81657E-02   -0.60638E-02  2796   0.107E+00    0.486E-01
RMM:   4    -0.817350092327E+02    0.37399E-02   -0.12440E-02  2784   0.539E-01    0.276E-01
RMM:   5    -0.817345963269E+02    0.41291E-03   -0.19682E-03  2506   0.267E-01    0.138E-01
RMM:   6    -0.817347141110E+02   -0.11778E-03   -0.15366E-03  2521   0.216E-01    0.875E-02
RMM:   7    -0.817345530073E+02    0.16110E-03   -0.44718E-04  2408   0.119E-01    0.222E-02
RMM:   8    -0.817345627039E+02   -0.96966E-05   -0.11018E-04  1966   0.602E-02    0.135E-02
RMM:   9    -0.817345662440E+02   -0.35401E-05   -0.44178E-05  1631   0.385E-02
  24 F= -.84975480E+02 E0= -.84976646E+02  d E =-.136762E+00
       N       E                     dE             d eps       ncg     rms          rms(c)
DAV:   1    -0.817746946036E+02   -0.40132E-01   -0.68984E+00  2000   0.119E+01    0.693E-01
RMM:   2    -0.817894100056E+02   -0.14715E-01   -0.16515E-01  2655   0.286E+00    0.556E-01
RMM:   3    -0.817933935183E+02   -0.39835E-02   -0.48506E-02  2743   0.969E-01    0.505E-01
RMM:   4    -0.817892128546E+02    0.41807E-02   -0.10773E-02  2660   0.580E-01    0.236E-01
RMM:   5    -0.817886861885E+02    0.52667E-03   -0.28864E-03  2526   0.325E-01    0.132E-01
RMM:   6    -0.817885294928E+02    0.15670E-03   -0.12149E-03  2598   0.181E-01    0.484E-02
RMM:   7    -0.817885640987E+02   -0.34606E-04   -0.40179E-04  2387   0.103E-01    0.232E-02
RMM:   8    -0.817885737847E+02   -0.96860E-05   -0.98753E-05  1922   0.574E-02
  25 F= -.85029993E+02 E0= -.85031227E+02  d E =-.545135E-01
       N       E                     dE             d eps       ncg     rms          rms(c)
DAV:   1    -0.817922075154E+02   -0.36434E-02   -0.42551E+00  2032   0.942E+00    0.543E-01
RMM:   2    -0.818013923613E+02   -0.91848E-02   -0.10198E-01  2651   0.223E+00    0.437E-01
RMM:   3    -0.818035390619E+02   -0.21467E-02   -0.28634E-02  2752   0.754E-01    0.386E-01
RMM:   4    -0.818010982897E+02    0.24408E-02   -0.64917E-03  2664   0.452E-01    0.184E-01
RMM:   5    -0.818007526244E+02    0.34567E-03   -0.17794E-03  2533   0.255E-01    0.997E-02
RMM:   6    -0.818006791737E+02    0.73451E-04   -0.77338E-04  2563   0.143E-01    0.374E-02
RMM:   7    -0.818007017442E+02   -0.22570E-04   -0.24768E-04  2258   0.835E-02    0.187E-02
RMM:   8    -0.818007102044E+02   -0.84602E-05   -0.56549E-05  1680   0.468E-02
  26 F= -.85042503E+02 E0= -.85043803E+02  d E =-.670231E-01
       N       E                     dE             d eps       ncg     rms          rms(c)
DAV:   1    -0.818544695941E+02   -0.53768E-01   -0.68066E+00  2000   0.127E+01    0.659E-01
RMM:   2    -0.818679458096E+02   -0.13476E-01   -0.16776E-01  2730   0.262E+00    0.411E-01
RMM:   3    -0.818724147949E+02   -0.44690E-02   -0.34427E-02  2787   0.818E-01    0.445E-01
RMM:   4    -0.818699787941E+02    0.24360E-02   -0.84331E-03  2778   0.442E-01    0.224E-01
RMM:   5    -0.818699551789E+02    0.23615E-04   -0.26794E-03  2608   0.298E-01    0.139E-01
RMM:   6    -0.818695684735E+02    0.38671E-03   -0.68145E-04  2341   0.182E-01    0.522E-02
RMM:   7    -0.818695750860E+02   -0.66124E-05   -0.35405E-04  2443   0.968E-02    0.187E-02
RMM:   8    -0.818695808400E+02   -0.57541E-05   -0.93558E-05  1835   0.501E-02
  27 F= -.85109805E+02 E0= -.85110971E+02  d E =-.673023E-01
       N       E                     dE             d eps       ncg     rms          rms(c)
DAV:   1    -0.818315348309E+02    0.38040E-01   -0.59692E+01  2000   0.376E+01    0.201E+00
RMM:   2    -0.819565572794E+02   -0.12502E+00   -0.15882E+00  2644   0.829E+00    0.116E+00
RMM:   3    -0.820000563543E+02   -0.43499E-01   -0.36672E-01  2797   0.261E+00    0.120E+00
RMM:   4    -0.819841855709E+02    0.15871E-01   -0.72149E-02  2801   0.121E+00    0.695E-01
RMM:   5    -0.819847013079E+02   -0.51574E-03   -0.27431E-02  2724   0.839E-01    0.435E-01
RMM:   6    -0.819806961378E+02    0.40052E-02   -0.73456E-03  2392   0.583E-01    0.180E-01
RMM:   7    -0.819806025525E+02    0.93585E-04   -0.45248E-03  2761   0.301E-01    0.658E-02
RMM:   8    -0.819805560417E+02    0.46511E-04   -0.81031E-04  2535   0.154E-01    0.350E-02
RMM:   9    -0.819805650299E+02   -0.89882E-05   -0.29662E-04  2474   0.697E-02    0.172E-02
RMM:  10    -0.819805907462E+02   -0.25716E-04   -0.78274E-05  1862   0.469E-02    0.928E-03
RMM:  11    -0.819806019142E+02   -0.11168E-04   -0.19607E-05  1329   0.363E-02    0.489E-03
RMM:  12    -0.819806151051E+02   -0.13191E-04   -0.89755E-06  1231   0.260E-02    0.341E-03
RMM:  13    -0.819806322623E+02   -0.17157E-04   -0.59798E-06  1210   0.187E-02    0.233E-03
RMM:  14    -0.819806486667E+02   -0.16404E-04   -0.46568E-06  1209   0.178E-02    0.172E-03
RMM:  15    -0.819806669157E+02   -0.18249E-04   -0.55728E-06  1242   0.146E-02    0.235E-03
RMM:  16    -0.819806747425E+02   -0.78267E-05   -0.37033E-06  1228   0.144E-02
  28 F= -.85216442E+02 E0= -.85217469E+02  d E =-.173939E+00
       N       E                     dE             d eps       ncg     rms          rms(c)
DAV:   1    -0.819787905467E+02    0.18764E-02   -0.30452E+00  2080   0.842E+00    0.432E-01
RMM:   2    -0.819851237302E+02   -0.63332E-02   -0.72058E-02  2716   0.174E+00    0.303E-01
RMM:   3    -0.819870295332E+02   -0.19058E-02   -0.16095E-02  2783   0.568E-01    0.312E-01
RMM:   4    -0.819853643360E+02    0.16652E-02   -0.35022E-03  2735   0.310E-01    0.156E-01
RMM:   5    -0.819853866609E+02   -0.22325E-04   -0.97612E-04  2540   0.188E-01    0.949E-02
RMM:   6    -0.819852712311E+02    0.11543E-03   -0.34712E-04  2259   0.120E-01    0.293E-02
RMM:   7    -0.819852777704E+02   -0.65394E-05   -0.15561E-04  2094   0.719E-02    0.118E-02
RMM:   8    -0.819852804697E+02   -0.26993E-05   -0.34495E-05  1532   0.384E-02
  29 F= -.85220111E+02 E0= -.85221098E+02  d E =-.177608E+00
       N       E                     dE             d eps       ncg     rms          rms(c)
DAV:   1    -0.820521079662E+02   -0.66830E-01   -0.45381E+00  2000   0.103E+01    0.558E-01
RMM:   2    -0.820656073879E+02   -0.13499E-01   -0.15668E-01  2851   0.232E+00    0.324E-01
RMM:   3    -0.820674741341E+02   -0.18667E-02   -0.21312E-02  2841   0.679E-01    0.342E-01
RMM:   4    -0.820657170621E+02    0.17571E-02   -0.46943E-03  2760   0.352E-01    0.187E-01
RMM:   5    -0.820655527758E+02    0.16429E-03   -0.21815E-03  2657   0.247E-01    0.103E-01
RMM:   6    -0.820652831422E+02    0.26963E-03   -0.53388E-04  2355   0.157E-01    0.527E-02
RMM:   7    -0.820652712952E+02    0.11847E-04   -0.29015E-04  2356   0.860E-02    0.239E-02
RMM:   8    -0.820652638516E+02    0.74436E-05   -0.63763E-05  1731   0.581E-02
  30 F= -.85296054E+02 E0= -.85296796E+02  d E =-.759429E-01
       N       E                     dE             d eps       ncg     rms          rms(c)
DAV:   1    -0.820849503717E+02   -0.19679E-01   -0.68275E+00  2000   0.125E+01    0.694E-01
RMM:   2    -0.821051522947E+02   -0.20202E-01   -0.23282E-01  2861   0.286E+00    0.412E-01
RMM:   3    -0.821093878265E+02   -0.42355E-02   -0.35588E-02  2868   0.865E-01    0.477E-01
RMM:   4    -0.821050142235E+02    0.43736E-02   -0.74003E-03  2737   0.444E-01    0.225E-01
RMM:   5    -0.821050268101E+02   -0.12587E-04   -0.34493E-03  2644   0.310E-01    0.131E-01
RMM:   6    -0.821045771864E+02    0.44962E-03   -0.89651E-04  2437   0.192E-01    0.611E-02
RMM:   7    -0.821045740779E+02    0.31086E-05   -0.40857E-04  2421   0.101E-01    0.286E-02
RMM:   8    -0.821045739301E+02    0.14779E-06   -0.10524E-04  1897   0.650E-02    0.169E-02
RMM:   9    -0.821046076076E+02   -0.33678E-04   -0.45661E-05  1649   0.360E-02    0.569E-03
RMM:  10    -0.821046335267E+02   -0.25919E-04   -0.13551E-05  1252   0.325E-02    0.413E-03
RMM:  11    -0.821046662395E+02   -0.32713E-04   -0.10162E-05  1233   0.217E-02    0.351E-03
RMM:  12    -0.821047254902E+02   -0.59251E-04   -0.18263E-05  1380   0.225E-02    0.228E-03
RMM:  13    -0.821047472556E+02   -0.21765E-04   -0.96172E-06  1266   0.206E-02    0.200E-03
RMM:  14    -0.821047668756E+02   -0.19620E-04   -0.73316E-06  1250   0.164E-02    0.151E-03
RMM:  15    -0.821047728835E+02   -0.60079E-05   -0.39994E-06  1220   0.146E-02
  31 F= -.85330699E+02 E0= -.85331126E+02  d E =-.110588E+00
       N       E                     dE             d eps       ncg     rms          rms(c)
DAV:   1    -0.821486043140E+02   -0.43837E-01   -0.13176E+00  2064   0.534E+00    0.428E-01
RMM:   2    -0.821588683684E+02   -0.10264E-01   -0.63723E-02  2728   0.154E+00    0.553E-01
RMM:   3    -0.821529960068E+02    0.58724E-02   -0.14338E-02  2759   0.576E-01    0.218E-01
RMM:   4    -0.821522600743E+02    0.73593E-03   -0.32074E-03  2616   0.315E-01    0.139E-01
RMM:   5    -0.821519452789E+02    0.31480E-03   -0.89768E-04  2583   0.165E-01    0.790E-02
RMM:   6    -0.821519393852E+02    0.58937E-05   -0.44463E-04  2535   0.928E-02    0.242E-02
RMM:   7    -0.821519521190E+02   -0.12734E-04   -0.10384E-04  2032   0.552E-02    0.928E-03
RMM:   8    -0.821519563790E+02   -0.42600E-05   -0.21968E-05  1442   0.315E-02
  32 F= -.85374494E+02 E0= -.85375032E+02  d E =-.437943E-01
       N       E                     dE             d eps       ncg     rms          rms(c)
DAV:   1    -0.821864198705E+02   -0.34468E-01   -0.65209E+00  2000   0.120E+01    0.919E-01
RMM:   2    -0.822309557617E+02   -0.44536E-01   -0.30098E-01  2708   0.339E+00    0.111E+00
RMM:   3    -0.822088022191E+02    0.22154E-01   -0.72106E-02  2763   0.129E+00    0.481E-01
RMM:   4    -0.822044956759E+02    0.43065E-02   -0.14295E-02  2609   0.675E-01    0.303E-01
RMM:   5    -0.822031176638E+02    0.13780E-02   -0.39290E-03  2627   0.349E-01    0.182E-01
RMM:   6    -0.822030379615E+02    0.79702E-04   -0.21487E-03  2798   0.203E-01    0.573E-02
RMM:   7    -0.822030963258E+02   -0.58364E-04   -0.50473E-04  2605   0.100E-01    0.210E-02
RMM:   8    -0.822031233648E+02   -0.27039E-04   -0.10963E-04  1993   0.556E-02    0.114E-02
RMM:   9    -0.822031366508E+02   -0.13286E-04   -0.37400E-05  1618   0.387E-02    0.504E-03
RMM:  10    -0.822031458582E+02   -0.92073E-05   -0.13537E-05  1297   0.288E-02
  33 F= -.85418383E+02 E0= -.85419091E+02  d E =-.876833E-01
       N       E                     dE             d eps       ncg     rms          rms(c)
DAV:   1    -0.822475899837E+02   -0.44453E-01   -0.48728E-01  2240   0.348E+00    0.261E-01
RMM:   2    -0.822499651550E+02   -0.23752E-02   -0.22976E-02  2697   0.935E-01    0.235E-01
RMM:   3    -0.822493340902E+02    0.63106E-03   -0.48453E-03  2777   0.335E-01    0.152E-01
RMM:   4    -0.822486894829E+02    0.64461E-03   -0.77263E-04  2573   0.167E-01    0.809E-02
RMM:   5    -0.822486806192E+02    0.88638E-05   -0.23304E-04  2366   0.881E-02    0.536E-02
RMM:   6    -0.822486801057E+02    0.51342E-06   -0.14390E-04  2166   0.646E-02    0.216E-02
RMM:   7    -0.822486801407E+02   -0.34961E-07   -0.29853E-05  1466   0.388E-02
  34 F= -.85461244E+02 E0= -.85462019E+02  d E =-.428612E-01
       N       E                     dE             d eps       ncg     rms          rms(c)
DAV:   1    -0.823493009682E+02   -0.10062E+00   -0.43918E+00  2000   0.105E+01    0.767E-01
RMM:   2    -0.823672144138E+02   -0.17913E-01   -0.20044E-01  2680   0.277E+00    0.598E-01
RMM:   3    -0.823658811192E+02    0.13333E-02   -0.42946E-02  2784   0.987E-01    0.456E-01
RMM:   4    -0.823596466146E+02    0.62345E-02   -0.68858E-03  2622   0.483E-01    0.244E-01
RMM:   5    -0.823595769603E+02    0.69654E-04   -0.23083E-03  2732   0.243E-01    0.163E-01
RMM:   6    -0.823594855794E+02    0.91381E-04   -0.12324E-03  2733   0.161E-01    0.625E-02
RMM:   7    -0.823594564606E+02    0.29119E-04   -0.27958E-04  2470   0.946E-02    0.158E-02
RMM:   8    -0.823594666754E+02   -0.10215E-04   -0.88571E-05  1876   0.430E-02    0.112E-02
RMM:   9    -0.823594738680E+02   -0.71926E-05   -0.16656E-05  1292   0.312E-02
  35 F= -.85564208E+02 E0= -.85565145E+02  d E =-.145825E+00
       N       E                     dE             d eps       ncg     rms          rms(c)
DAV:   1    -0.824090193259E+02   -0.49553E-01   -0.17596E+01  2000   0.210E+01    0.153E+00
RMM:   2    -0.824684008880E+02   -0.59382E-01   -0.81665E-01  2697   0.558E+00    0.919E-01
RMM:   3    -0.824804678085E+02   -0.12067E-01   -0.16877E-01  2785   0.192E+00    0.870E-01
RMM:   4    -0.824563870149E+02    0.24081E-01   -0.28384E-02  2642   0.953E-01    0.483E-01
RMM:   5    -0.824560126421E+02    0.37437E-03   -0.10083E-02  2788   0.459E-01    0.323E-01
RMM:   6    -0.824555325391E+02    0.48010E-03   -0.47288E-03  2750   0.319E-01    0.125E-01
RMM:   7    -0.824553522969E+02    0.18024E-03   -0.11634E-03  2551   0.206E-01    0.349E-02
RMM:   8    -0.824553847755E+02   -0.32479E-04   -0.42192E-04  2577   0.846E-02    0.240E-02
RMM:   9    -0.824554135029E+02   -0.28727E-04   -0.11012E-04  1909   0.442E-02    0.142E-02
RMM:  10    -0.824554563616E+02   -0.42859E-04   -0.36363E-05  1505   0.396E-02    0.635E-03
RMM:  11    -0.824554696562E+02   -0.13295E-04   -0.11693E-05  1238   0.312E-02    0.302E-03
RMM:  12    -0.824554817479E+02   -0.12092E-04   -0.57803E-06  1212   0.177E-02    0.293E-03
RMM:  13    -0.824555103273E+02   -0.28579E-04   -0.83394E-06  1264   0.199E-02    0.265E-03
RMM:  14    -0.824555217002E+02   -0.11373E-04   -0.51270E-06  1230   0.169E-02    0.169E-03
RMM:  15    -0.824555335437E+02   -0.11844E-04   -0.63140E-06  1246   0.141E-02    0.219E-03
RMM:  16    -0.824555397671E+02   -0.62233E-05   -0.48663E-06  1228   0.131E-02
  36 F= -.85645284E+02 E0= -.85646329E+02  d E =-.226901E+00
       N       E                     dE             d eps       ncg     rms          rms(c)
DAV:   1    -0.824814563299E+02   -0.25923E-01   -0.10023E+00  2128   0.497E+00    0.326E-01
RMM:   2    -0.824852511863E+02   -0.37949E-02   -0.44102E-02  2741   0.125E+00    0.190E-01
RMM:   3    -0.824858036712E+02   -0.55248E-03   -0.78863E-03  2779   0.433E-01    0.204E-01
RMM:   4    -0.824845917274E+02    0.12119E-02   -0.15280E-03  2603   0.216E-01    0.108E-01
RMM:   5    -0.824845960840E+02   -0.43566E-05   -0.81284E-04  2645   0.133E-01    0.578E-02
RMM:   6    -0.824845687158E+02    0.27368E-04   -0.24754E-04  2305   0.892E-02    0.274E-02
RMM:   7    -0.824845670375E+02    0.16783E-05   -0.45324E-05  1617   0.464E-02
  37 F= -.85671512E+02 E0= -.85672475E+02  d E =-.262281E-01
       N       E                     dE             d eps       ncg     rms          rms(c)
DAV:   1    -0.824966839340E+02   -0.12115E-01   -0.21008E+00  2000   0.719E+00    0.474E-01
RMM:   2    -0.825044809217E+02   -0.77970E-02   -0.91491E-02  2750   0.181E+00    0.274E-01
RMM:   3    -0.825058651431E+02   -0.13842E-02   -0.16664E-02  2781   0.626E-01    0.298E-01
RMM:   4    -0.825032122021E+02    0.26529E-02   -0.32952E-03  2611   0.315E-01    0.155E-01
RMM:   5    -0.825032342680E+02   -0.22066E-04   -0.18195E-03  2734   0.196E-01    0.817E-02
RMM:   6    -0.825031725362E+02    0.61732E-04   -0.50919E-04  2515   0.124E-01    0.386E-02
RMM:   7    -0.825031752880E+02   -0.27517E-05   -0.10460E-04  1992   0.597E-02    0.154E-02
RMM:   8    -0.825031882004E+02   -0.12912E-04   -0.35317E-05  1574   0.369E-02    0.360E-03
RMM:   9    -0.825031965303E+02   -0.83300E-05   -0.97116E-06  1232   0.278E-02
  38 F= -.85686114E+02 E0= -.85686945E+02  d E =-.408300E-01
       N       E                     dE             d eps       ncg     rms          rms(c)
DAV:   1    -0.825319951391E+02   -0.28807E-01   -0.15951E+00  2000   0.595E+00    0.400E-01
RMM:   2    -0.825394500779E+02   -0.74549E-02   -0.62390E-02  2687   0.159E+00    0.353E-01
RMM:   3    -0.825370280968E+02    0.24220E-02   -0.15022E-02  2727   0.612E-01    0.207E-01
RMM:   4    -0.825359943300E+02    0.10338E-02   -0.29468E-03  2592   0.311E-01    0.123E-01
RMM:   5    -0.825358842730E+02    0.11006E-03   -0.82148E-04  2622   0.143E-01    0.614E-02
RMM:   6    -0.825359005144E+02   -0.16241E-04   -0.30880E-04  2423   0.804E-02    0.158E-02
RMM:   7    -0.825359032836E+02   -0.27692E-05   -0.69240E-05  1820   0.540E-02
  39 F= -.85715960E+02 E0= -.85716715E+02  d E =-.298460E-01
       N       E                     dE             d eps       ncg     rms          rms(c)
DAV:   1    -0.825455379058E+02   -0.96374E-02   -0.16600E+00  2000   0.610E+00    0.423E-01
RMM:   2    -0.825537306441E+02   -0.81927E-02   -0.67246E-02  2696   0.163E+00    0.379E-01
RMM:   3    -0.825505927496E+02    0.31379E-02   -0.15369E-02  2723   0.629E-01    0.215E-01
RMM:   4    -0.825494271748E+02    0.11656E-02   -0.30811E-03  2584   0.323E-01    0.127E-01
RMM:   5    -0.825492987832E+02    0.12839E-03   -0.86429E-04  2632   0.145E-01    0.629E-02
RMM:   6    -0.825493247784E+02   -0.25995E-04   -0.33065E-04  2449   0.819E-02    0.167E-02
RMM:   7    -0.825493288446E+02   -0.40662E-05   -0.73668E-05  1837   0.570E-02
  40 F= -.85726514E+02 E0= -.85727191E+02  d E =-.404002E-01
       N       E                     dE             d eps       ncg     rms          rms(c)
DAV:   1    -0.825627723524E+02   -0.13448E-01   -0.28305E-01  2080   0.258E+00    0.157E-01
RMM:   2    -0.825636423435E+02   -0.86999E-03   -0.97731E-03  2593   0.681E-01    0.109E-01
RMM:   3    -0.825636775832E+02   -0.35240E-04   -0.21460E-03  2718   0.241E-01    0.930E-02
RMM:   4    -0.825634453836E+02    0.23220E-03   -0.36207E-04  2435   0.115E-01    0.497E-02
RMM:   5    -0.825634566087E+02   -0.11225E-04   -0.11791E-04  2090   0.662E-02    0.267E-02
RMM:   6    -0.825634627984E+02   -0.61896E-05   -0.52352E-05  1641   0.496E-02
  41 F= -.85739474E+02 E0= -.85740192E+02  d E =-.129595E-01
       N       E                     dE             d eps       ncg     rms          rms(c)
DAV:   1    -0.825877003490E+02   -0.24244E-01   -0.25397E+00  2000   0.773E+00    0.469E-01
RMM:   2    -0.825951421130E+02   -0.74418E-02   -0.86654E-02  2555   0.203E+00    0.314E-01
RMM:   3    -0.825959575853E+02   -0.81547E-03   -0.18938E-02  2752   0.713E-01    0.281E-01
RMM:   4    -0.825937294981E+02    0.22281E-02   -0.32304E-03  2625   0.321E-01    0.152E-01
RMM:   5    -0.825937799890E+02   -0.50491E-04   -0.11670E-03  2703   0.177E-01    0.844E-02
RMM:   6    -0.825937478367E+02    0.32152E-04   -0.53115E-04  2498   0.128E-01    0.262E-02
RMM:   7    -0.825937578143E+02   -0.99776E-05   -0.13473E-04  2119   0.622E-02    0.128E-02
RMM:   8    -0.825937651836E+02   -0.73693E-05   -0.31427E-05  1488   0.360E-02
  42 F= -.85766309E+02 E0= -.85767087E+02  d E =-.397953E-01
       N       E                     dE             d eps       ncg     rms          rms(c)
DAV:   1    -0.825686124931E+02    0.25145E-01   -0.10140E+01  2000   0.155E+01    0.954E-01
RMM:   2    -0.825970961300E+02   -0.28484E-01   -0.35324E-01  2571   0.403E+00    0.572E-01
RMM:   3    -0.826044856483E+02   -0.73895E-02   -0.78194E-02  2762   0.143E+00    0.572E-01
RMM:   4    -0.825941118619E+02    0.10374E-01   -0.13122E-02  2615   0.640E-01    0.311E-01
RMM:   5    -0.825941782932E+02   -0.66431E-04   -0.50991E-03  2756   0.346E-01    0.178E-01
RMM:   6    -0.825939673813E+02    0.21091E-03   -0.21822E-03  2575   0.263E-01    0.577E-02
RMM:   7    -0.825940000863E+02   -0.32705E-04   -0.64135E-04  2699   0.118E-01    0.288E-02
RMM:   8    -0.825940238175E+02   -0.23731E-04   -0.14731E-04  2125   0.466E-02    0.144E-02
RMM:   9    -0.825940520375E+02   -0.28220E-04   -0.30117E-05  1483   0.386E-02    0.643E-03
RMM:  10    -0.825940669908E+02   -0.14953E-04   -0.11386E-05  1241   0.269E-02    0.299E-03
RMM:  11    -0.825940826324E+02   -0.15642E-04   -0.68374E-06  1215   0.205E-02    0.238E-03
RMM:  12    -0.825940996148E+02   -0.16982E-04   -0.54892E-06  1220   0.182E-02    0.191E-03
RMM:  13    -0.825941137284E+02   -0.14114E-04   -0.48266E-06  1226   0.160E-02    0.165E-03
RMM:  14    -0.825941231749E+02   -0.94465E-05   -0.44955E-06  1229   0.135E-02
  43 F= -.85759982E+02 E0= -.85760663E+02  d E =-.334680E-01
       N       E                     dE             d eps       ncg     rms          rms(c)
DAV:   1    -0.825954071637E+02   -0.12934E-02   -0.35776E+00  2000   0.928E+00    0.560E-01
RMM:   2    -0.826061365676E+02   -0.10729E-01   -0.12458E-01  2582   0.237E+00    0.366E-01
RMM:   3    -0.826073562286E+02   -0.12197E-02   -0.24957E-02  2751   0.824E-01    0.316E-01
RMM:   4    -0.826041761962E+02    0.31800E-02   -0.46135E-03  2640   0.378E-01    0.168E-01
RMM:   5    -0.826041583298E+02    0.17866E-04   -0.15791E-03  2698   0.206E-01    0.897E-02
RMM:   6    -0.826041072179E+02    0.51112E-04   -0.69451E-04  2515   0.150E-01    0.286E-02
RMM:   7    -0.826041134735E+02   -0.62556E-05   -0.19960E-04  2256   0.707E-02    0.147E-02
RMM:   8    -0.826041179051E+02   -0.44316E-05   -0.45461E-05  1622   0.392E-02
  44 F= -.85773893E+02 E0= -.85774663E+02  d E =-.473788E-01
       N       E                     dE             d eps       ncg     rms          rms(c)
DAV:   1    -0.826172866653E+02   -0.13173E-01   -0.76061E-01  2000   0.428E+00    0.209E-01
RMM:   2    -0.826192463598E+02   -0.19597E-02   -0.24403E-02  2574   0.103E+00    0.127E-01
RMM:   3    -0.826195514784E+02   -0.30512E-03   -0.40947E-03  2759   0.315E-01    0.102E-01
RMM:   4    -0.826194637704E+02    0.87708E-04   -0.90849E-04  2685   0.155E-01    0.747E-02
RMM:   5    -0.826193820164E+02    0.81754E-04   -0.25128E-04  2322   0.863E-02    0.348E-02
RMM:   6    -0.826193776484E+02    0.43680E-05   -0.80367E-05  1878   0.746E-02
  45 F= -.85787890E+02 E0= -.85788653E+02  d E =-.139974E-01
       N       E                     dE             d eps       ncg     rms          rms(c)
DAV:   1    -0.826229205050E+02   -0.35385E-02   -0.46701E+00  2000   0.106E+01    0.533E-01
RMM:   2    -0.826349957018E+02   -0.12075E-01   -0.14940E-01  2559   0.256E+00    0.324E-01
RMM:   3    -0.826365709820E+02   -0.15753E-02   -0.25517E-02  2768   0.782E-01    0.237E-01
RMM:   4    -0.826368237382E+02   -0.25276E-03   -0.62633E-03  2764   0.385E-01    0.192E-01
RMM:   5    -0.826358795924E+02    0.94415E-03   -0.16620E-03  2675   0.215E-01    0.833E-02
RMM:   6    -0.826358438990E+02    0.35693E-04   -0.54207E-04  2370   0.158E-01    0.359E-02
RMM:   7    -0.826358637304E+02   -0.19831E-04   -0.26392E-04  2318   0.787E-02    0.198E-02
RMM:   8    -0.826358675592E+02   -0.38288E-05   -0.50547E-05  1649   0.433E-02
  46 F= -.85801303E+02 E0= -.85802040E+02  d E =-.274096E-01
       N       E                     dE             d eps       ncg     rms          rms(c)
DAV:   1    -0.826453066851E+02   -0.94430E-02   -0.51016E-01  2000   0.342E+00    0.159E-01
RMM:   2    -0.826463657768E+02   -0.10591E-02   -0.12229E-02  2483   0.801E-01    0.972E-02
RMM:   3    -0.826468136274E+02   -0.44785E-03   -0.36179E-03  2716   0.296E-01    0.968E-02
RMM:   4    -0.826465538142E+02    0.25981E-03   -0.66264E-04  2585   0.147E-01    0.535E-02
RMM:   5    -0.826465751367E+02   -0.21323E-04   -0.19313E-04  2258   0.760E-02    0.303E-02
RMM:   6    -0.826465760264E+02   -0.88968E-06   -0.57660E-05  1739   0.560E-02
  47 F= -.85811171E+02 E0= -.85811906E+02  d E =-.986814E-02
       N       E                     dE             d eps       ncg     rms          rms(c)
DAV:   1    -0.826571303560E+02   -0.10555E-01   -0.45623E+00  2000   0.102E+01    0.479E-01
RMM:   2    -0.826666924707E+02   -0.95621E-02   -0.11103E-01  2499   0.239E+00    0.288E-01
RMM:   3    -0.826707081924E+02   -0.40157E-02   -0.32664E-02  2748   0.889E-01    0.295E-01
RMM:   4    -0.826683480236E+02    0.23602E-02   -0.55416E-03  2688   0.405E-01    0.169E-01
RMM:   5    -0.826684688615E+02   -0.12084E-03   -0.17321E-03  2713   0.210E-01    0.994E-02
RMM:   6    -0.826684312684E+02    0.37593E-04   -0.55614E-04  2427   0.148E-01    0.285E-02
RMM:   7    -0.826684530009E+02   -0.21732E-04   -0.21342E-04  2308   0.645E-02    0.120E-02
RMM:   8    -0.826684575997E+02   -0.45988E-05   -0.39251E-05  1568   0.403E-02
  48 F= -.85830558E+02 E0= -.85831264E+02  d E =-.292557E-01
       N       E                     dE             d eps       ncg     rms          rms(c)
DAV:   1    -0.826232715170E+02    0.45181E-01   -0.18047E+01  2000   0.205E+01    0.994E-01
RMM:   2    -0.826620991128E+02   -0.38828E-01   -0.45655E-01  2484   0.492E+00    0.556E-01
RMM:   3    -0.826793289100E+02   -0.17230E-01   -0.13796E-01  2744   0.180E+00    0.590E-01
RMM:   4    -0.826706207182E+02    0.87082E-02   -0.23227E-02  2697   0.813E-01    0.376E-01
RMM:   5    -0.826707781020E+02   -0.15738E-03   -0.67912E-03  2750   0.400E-01    0.234E-01
RMM:   6    -0.826706553984E+02    0.12270E-03   -0.25682E-03  2499   0.308E-01    0.775E-02
RMM:   7    -0.826706945849E+02   -0.39187E-04   -0.88891E-04  2713   0.139E-01    0.270E-02
RMM:   8    -0.826707201731E+02   -0.25588E-04   -0.19393E-04  2277   0.554E-02    0.166E-02
RMM:   9    -0.826707346405E+02   -0.14467E-04   -0.40975E-05  1584   0.449E-02    0.752E-03
RMM:  10    -0.826707391287E+02   -0.44882E-05   -0.15734E-05  1268   0.346E-02
  49 F= -.85827972E+02 E0= -.85828599E+02  d E =-.266695E-01
       N       E                     dE             d eps       ncg     rms          rms(c)
DAV:   1    -0.826631305293E+02    0.76041E-02   -0.53571E+00  2000   0.112E+01    0.512E-01
RMM:   2    -0.826750741578E+02   -0.11944E-01   -0.13554E-01  2572   0.249E+00    0.317E-01
RMM:   3    -0.826784025639E+02   -0.33284E-02   -0.28605E-02  2752   0.839E-01    0.297E-01
RMM:   4    -0.826758885655E+02    0.25140E-02   -0.53585E-03  2683   0.404E-01    0.166E-01
RMM:   5    -0.826759698233E+02   -0.81258E-04   -0.18536E-03  2696   0.225E-01    0.853E-02
RMM:   6    -0.826759165019E+02    0.53321E-04   -0.57502E-04  2424   0.150E-01    0.259E-02
RMM:   7    -0.826759394022E+02   -0.22900E-04   -0.22112E-04  2322   0.658E-02    0.130E-02
RMM:   8    -0.826759440655E+02   -0.46632E-05   -0.37608E-05  1556   0.398E-02
  50 F= -.85835804E+02 E0= -.85836475E+02  d E =-.345016E-01
       N       E                     dE             d eps       ncg     rms          rms(c)
DAV:   1    -0.826842187669E+02   -0.82794E-02   -0.34609E-01  2048   0.286E+00    0.147E-01
RMM:   2    -0.826848602100E+02   -0.64144E-03   -0.90914E-03  2715   0.618E-01    0.827E-02
RMM:   3    -0.826850078767E+02   -0.14767E-03   -0.14598E-03  2749   0.179E-01    0.731E-02
RMM:   4    -0.826849464811E+02    0.61396E-04   -0.37277E-04  2472   0.108E-01    0.558E-02
RMM:   5    -0.826849297222E+02    0.16759E-04   -0.97074E-05  1929   0.596E-02    0.214E-02
RMM:   6    -0.826849297194E+02    0.28622E-08   -0.28080E-05  1393   0.430E-02
  51 F= -.85844075E+02 E0= -.85844783E+02  d E =-.827114E-02
       N       E                     dE             d eps       ncg     rms          rms(c)
DAV:   1    -0.826936852871E+02   -0.87556E-02   -0.31152E+00  2000   0.859E+00    0.447E-01
RMM:   2    -0.826998573571E+02   -0.61721E-02   -0.85228E-02  2726   0.187E+00    0.249E-01
RMM:   3    -0.827011025307E+02   -0.12452E-02   -0.12723E-02  2827   0.526E-01    0.221E-01
RMM:   4    -0.827005176374E+02    0.58489E-03   -0.31768E-03  2743   0.287E-01    0.174E-01
RMM:   5    -0.827003339393E+02    0.18370E-03   -0.87889E-04  2555   0.157E-01    0.698E-02
RMM:   6    -0.827003369070E+02   -0.29677E-05   -0.27441E-04  2347   0.968E-02    0.273E-02
RMM:   7    -0.827003378794E+02   -0.97247E-06   -0.97970E-05  2003   0.597E-02
  52 F= -.85857351E+02 E0= -.85858198E+02  d E =-.215466E-01
       N       E                     dE             d eps       ncg     rms          rms(c)
DAV:   1    -0.827010375041E+02   -0.70060E-03   -0.20247E-01  2016   0.219E+00    0.111E-01
RMM:   2    -0.827014586449E+02   -0.42114E-03   -0.55887E-03  2727   0.488E-01    0.630E-02
RMM:   3    -0.827015649310E+02   -0.10629E-03   -0.94133E-04  2701   0.143E-01    0.568E-02
RMM:   4    -0.827015228360E+02    0.42095E-04   -0.23360E-04  2301   0.869E-02    0.434E-02
RMM:   5    -0.827015179033E+02    0.49327E-05   -0.54884E-05  1655   0.505E-02
  53 F= -.85857991E+02 E0= -.85858880E+02  d E =-.221864E-01
       N       E                     dE             d eps       ncg     rms          rms(c)
DAV:   1    -0.827125398588E+02   -0.11017E-01   -0.90489E-01  2000   0.462E+00    0.226E-01
RMM:   2    -0.827146695264E+02   -0.21297E-02   -0.24559E-02  2714   0.993E-01    0.135E-01
RMM:   3    -0.827152542922E+02   -0.58477E-03   -0.39895E-03  2768   0.306E-01    0.123E-01
RMM:   4    -0.827148339838E+02    0.42031E-03   -0.98360E-04  2643   0.170E-01    0.712E-02
RMM:   5    -0.827148426181E+02   -0.86343E-05   -0.24899E-04  2348   0.797E-02    0.304E-02
RMM:   6    -0.827148461656E+02   -0.35475E-05   -0.86890E-05  1893   0.575E-02
  54 F= -.85870070E+02 E0= -.85871023E+02  d E =-.120790E-01
       N       E                     dE             d eps       ncg     rms          rms(c)
DAV:   1    -0.827144095058E+02    0.43311E-03   -0.81783E+00  2000   0.139E+01    0.704E-01
RMM:   2    -0.827349629959E+02   -0.20553E-01   -0.22905E-01  2715   0.296E+00    0.436E-01
RMM:   3    -0.827396476444E+02   -0.46846E-02   -0.35415E-02  2777   0.936E-01    0.395E-01
RMM:   4    -0.827349681382E+02    0.46795E-02   -0.87637E-03  2650   0.512E-01    0.217E-01
RMM:   5    -0.827349687778E+02   -0.63964E-06   -0.26387E-03  2750   0.240E-01    0.986E-02
RMM:   6    -0.827349572091E+02    0.11569E-04   -0.10025E-03  2672   0.152E-01    0.391E-02
RMM:   7    -0.827349393254E+02    0.17884E-04   -0.23107E-04  2356   0.873E-02    0.182E-02
RMM:   8    -0.827349456550E+02   -0.63296E-05   -0.70567E-05  1828   0.490E-02
  55 F= -.85886413E+02 E0= -.85887657E+02  d E =-.284223E-01
       N       E                     dE             d eps       ncg     rms          rms(c)
DAV:   1    -0.827433031804E+02   -0.83639E-02   -0.57612E-01  2000   0.354E+00    0.165E-01
RMM:   2    -0.827445375452E+02   -0.12344E-02   -0.14386E-02  2659   0.818E-01    0.984E-02
RMM:   3    -0.827448485667E+02   -0.31102E-03   -0.32743E-03  2721   0.250E-01    0.764E-02
RMM:   4    -0.827448556754E+02   -0.71087E-05   -0.70283E-04  2667   0.133E-01    0.592E-02
RMM:   5    -0.827448211385E+02    0.34537E-04   -0.16631E-04  2130   0.790E-02    0.330E-02
RMM:   6    -0.827448209147E+02    0.22373E-06   -0.57614E-05  1708   0.543E-02
  56 F= -.85895359E+02 E0= -.85896639E+02  d E =-.894632E-02
       N       E                     dE             d eps       ncg     rms          rms(c)
DAV:   1    -0.827458190084E+02   -0.99787E-03   -0.43021E+00  2000   0.971E+00    0.454E-01
RMM:   2    -0.827549323004E+02   -0.91133E-02   -0.10627E-01  2644   0.225E+00    0.268E-01
RMM:   3    -0.827572968316E+02   -0.23645E-02   -0.26637E-02  2754   0.703E-01    0.207E-01
RMM:   4    -0.827574420257E+02   -0.14519E-03   -0.46825E-03  2784   0.332E-01    0.165E-01
RMM:   5    -0.827572356307E+02    0.20639E-03   -0.14223E-03  2656   0.208E-01    0.101E-01
RMM:   6    -0.827571575362E+02    0.78095E-04   -0.46426E-04  2384   0.127E-01    0.274E-02
RMM:   7    -0.827571606264E+02   -0.30903E-05   -0.14791E-04  2091   0.778E-02    0.131E-02
RMM:   8    -0.827571667824E+02   -0.61560E-05   -0.47343E-05  1658   0.433E-02
  57 F= -.85905178E+02 E0= -.85906545E+02  d E =-.187647E-01
       N       E                     dE             d eps       ncg     rms          rms(c)
DAV:   1    -0.827598047386E+02   -0.26441E-02   -0.11359E-01  2224   0.165E+00    0.945E-02
RMM:   2    -0.827600494295E+02   -0.24469E-03   -0.32565E-03  2641   0.397E-01    0.467E-02
RMM:   3    -0.827601145481E+02   -0.65119E-04   -0.70559E-04  2593   0.121E-01    0.347E-02
RMM:   4    -0.827601308816E+02   -0.16334E-04   -0.16161E-04  2189   0.722E-02    0.331E-02
RMM:   5    -0.827601154488E+02    0.15433E-04   -0.29351E-05  1418   0.441E-02    0.140E-02
RMM:   6    -0.827601211928E+02   -0.57440E-05   -0.13842E-05  1222   0.347E-02
  58 F= -.85907556E+02 E0= -.85908950E+02  d E =-.237832E-02
       N       E                     dE             d eps       ncg     rms          rms(c)
DAV:   1    -0.827650861076E+02   -0.49707E-02   -0.10217E+00  2000   0.494E+00    0.281E-01
RMM:   2    -0.827673416391E+02   -0.22555E-02   -0.29686E-02  2694   0.111E+00    0.144E-01
RMM:   3    -0.827676746106E+02   -0.33297E-03   -0.41824E-03  2772   0.313E-01    0.109E-01
RMM:   4    -0.827677315800E+02   -0.56969E-04   -0.12523E-03  2751   0.174E-01    0.996E-02
RMM:   5    -0.827675944682E+02    0.13711E-03   -0.27364E-04  2412   0.909E-02    0.376E-02
RMM:   6    -0.827676109264E+02   -0.16458E-04   -0.10464E-04  2067   0.669E-02    0.143E-02
RMM:   7    -0.827676092478E+02    0.16786E-05   -0.26097E-05  1396   0.449E-02
  59 F= -.85913313E+02 E0= -.85914776E+02  d E =-.813533E-02
       N       E                     dE             d eps       ncg     rms          rms(c)
DAV:   1    -0.827664152655E+02    0.11957E-02   -0.40928E+00  2000   0.988E+00    0.565E-01
RMM:   2    -0.827755589305E+02   -0.91437E-02   -0.11842E-01  2696   0.223E+00    0.290E-01
RMM:   3    -0.827772455622E+02   -0.16866E-02   -0.17685E-02  2778   0.645E-01    0.232E-01
RMM:   4    -0.827768582229E+02    0.38734E-03   -0.49320E-03  2753   0.347E-01    0.197E-01
RMM:   5    -0.827764854727E+02    0.37275E-03   -0.10814E-03  2651   0.171E-01    0.758E-02
RMM:   6    -0.827765328747E+02   -0.47402E-04   -0.41714E-04  2593   0.113E-01    0.262E-02
RMM:   7    -0.827765304402E+02    0.24345E-05   -0.98204E-05  1965   0.652E-02
  60 F= -.85918761E+02 E0= -.85920354E+02  d E =-.135839E-01
       N       E                     dE             d eps       ncg     rms          rms(c)
DAV:   1    -0.827812327753E+02   -0.46999E-02   -0.78333E-01  2000   0.437E+00    0.247E-01
RMM:   2    -0.827832715787E+02   -0.20388E-02   -0.24322E-02  2724   0.102E+00    0.143E-01
RMM:   3    -0.827839300045E+02   -0.65843E-03   -0.55997E-03  2777   0.351E-01    0.142E-01
RMM:   4    -0.827833770456E+02    0.55296E-03   -0.11022E-03  2685   0.182E-01    0.840E-02
RMM:   5    -0.827833752298E+02    0.18158E-05   -0.26475E-04  2404   0.905E-02    0.527E-02
RMM:   6    -0.827833813033E+02   -0.60735E-05   -0.12601E-04  2054   0.672E-02    0.184E-02
RMM:   7    -0.827833819671E+02   -0.66375E-06   -0.40169E-05  1556   0.464E-02
  61 F= -.85924401E+02 E0= -.85925966E+02  d E =-.563921E-02
       N       E                     dE             d eps       ncg     rms          rms(c)
DAV:   1    -0.827852627795E+02   -0.18815E-02   -0.11068E+00  2000   0.521E+00    0.290E-01
RMM:   2    -0.827881528160E+02   -0.28900E-02   -0.34448E-02  2725   0.121E+00    0.169E-01
RMM:   3    -0.827890257482E+02   -0.87293E-03   -0.78446E-03  2777   0.415E-01    0.165E-01
RMM:   4    -0.827883137735E+02    0.71197E-03   -0.15622E-03  2703   0.215E-01    0.100E-01
RMM:   5    -0.827882990345E+02    0.14739E-04   -0.36178E-04  2507   0.105E-01    0.632E-02
RMM:   6    -0.827883078923E+02   -0.88578E-05   -0.17909E-04  2173   0.758E-02    0.222E-02
RMM:   7    -0.827883098347E+02   -0.19424E-05   -0.58473E-05  1702   0.536E-02
  62 F= -.85927887E+02 E0= -.85929412E+02  d E =-.912583E-02
       N       E                     dE             d eps       ncg     rms          rms(c)
DAV:   1    -0.827759904954E+02    0.12317E-01   -0.44224E+00  2000   0.104E+01    0.578E-01
RMM:   2    -0.827875761198E+02   -0.11586E-01   -0.13874E-01  2730   0.241E+00    0.332E-01
RMM:   3    -0.827908480073E+02   -0.32719E-02   -0.30782E-02  2784   0.815E-01    0.324E-01
RMM:   4    -0.827882678515E+02    0.25802E-02   -0.60070E-03  2715   0.414E-01    0.203E-01
RMM:   5    -0.827881606278E+02    0.10722E-03   -0.14347E-03  2640   0.209E-01    0.133E-01
RMM:   6    -0.827881769011E+02   -0.16273E-04   -0.73582E-04  2532   0.144E-01    0.484E-02
RMM:   7    -0.827881832920E+02   -0.63909E-05   -0.24709E-04  2372   0.934E-02    0.178E-02
RMM:   8    -0.827881884785E+02   -0.51865E-05   -0.58998E-05  1697   0.497E-02
  63 F= -.85924880E+02 E0= -.85926302E+02  d E =-.611829E-02
       N       E                     dE             d eps       ncg     rms          rms(c)
DAV:   1    -0.827830883468E+02    0.50949E-02   -0.24192E+00  2000   0.776E+00    0.425E-01
RMM:   2    -0.827896591204E+02   -0.65708E-02   -0.76211E-02  2751   0.172E+00    0.255E-01
RMM:   3    -0.827910940673E+02   -0.14349E-02   -0.14823E-02  2772   0.574E-01    0.233E-01
RMM:   4    -0.827896117365E+02    0.14823E-02   -0.31078E-03  2685   0.307E-01    0.139E-01
RMM:   5    -0.827895538354E+02    0.57901E-04   -0.75743E-04  2586   0.155E-01    0.830E-02
RMM:   6    -0.827895554020E+02   -0.15666E-05   -0.40810E-04  2425   0.107E-01    0.309E-02
RMM:   7    -0.827895540293E+02    0.13727E-05   -0.12268E-04  2071   0.703E-02    0.123E-02
RMM:   8    -0.827895552709E+02   -0.12416E-05   -0.27596E-05  1452   0.380E-02
  64 F= -.85928376E+02 E0= -.85929877E+02  d E =-.961511E-02
       N       E                     dE             d eps       ncg     rms          rms(c)
DAV:   1    -0.827928325524E+02   -0.32785E-02   -0.21022E-01  2016   0.232E+00    0.128E-01
RMM:   2    -0.827932745073E+02   -0.44195E-03   -0.61361E-03  2740   0.503E-01    0.651E-02
RMM:   3    -0.827933348013E+02   -0.60294E-04   -0.86475E-04  2700   0.140E-01    0.546E-02
RMM:   4    -0.827933167925E+02    0.18009E-04   -0.20140E-04  2365   0.778E-02    0.416E-02
RMM:   5    -0.827933124532E+02    0.43393E-05   -0.56315E-05  1708   0.537E-02
  65 F= -.85931464E+02 E0= -.85932946E+02  d E =-.308720E-02
       N       E                     dE             d eps       ncg     rms          rms(c)
DAV:   1    -0.827995829807E+02   -0.62662E-02   -0.18968E+00  2000   0.696E+00    0.390E-01
RMM:   2    -0.828035490894E+02   -0.39661E-02   -0.55077E-02  2762   0.146E+00    0.197E-01
RMM:   3    -0.828039049180E+02   -0.35583E-03   -0.68614E-03  2782   0.404E-01    0.156E-01
RMM:   4    -0.828039731311E+02   -0.68213E-04   -0.18301E-03  2762   0.213E-01    0.125E-01
RMM:   5    -0.828038326501E+02    0.14048E-03   -0.63298E-04  2592   0.141E-01    0.604E-02
RMM:   6    -0.828038247106E+02    0.79394E-05   -0.21650E-04  2241   0.922E-02    0.318E-02
RMM:   7    -0.828038089026E+02    0.15808E-04   -0.75461E-05  1893   0.633E-02    0.987E-03
RMM:   8    -0.828038109309E+02   -0.20284E-05   -0.23972E-05  1400   0.332E-02
  66 F= -.85939939E+02 E0= -.85941389E+02  d E =-.115622E-01
       N       E                     dE             d eps       ncg     rms          rms(c)
DAV:   1    -0.828040886629E+02   -0.27976E-03   -0.75905E+00  2000   0.139E+01    0.772E-01
RMM:   2    -0.828198510977E+02   -0.15762E-01   -0.21574E-01  2739   0.298E+00    0.384E-01
RMM:   3    -0.828216423821E+02   -0.17913E-02   -0.31213E-02  2775   0.847E-01    0.297E-01
RMM:   4    -0.828223960769E+02   -0.75369E-03   -0.76990E-03  2777   0.433E-01    0.247E-01
RMM:   5    -0.828214938566E+02    0.90222E-03   -0.25750E-03  2652   0.274E-01    0.121E-01
RMM:   6    -0.828214862824E+02    0.75741E-05   -0.90131E-04  2542   0.176E-01    0.648E-02
RMM:   7    -0.828214235628E+02    0.62720E-04   -0.35093E-04  2483   0.112E-01    0.229E-02
RMM:   8    -0.828214247670E+02   -0.12042E-05   -0.93962E-05  1885   0.472E-02
  67 F= -.85953434E+02 E0= -.85954788E+02  d E =-.250573E-01
       N       E                     dE             d eps       ncg     rms          rms(c)
DAV:   1    -0.827679078734E+02    0.53516E-01   -0.30252E+01  2000   0.278E+01    0.157E+00
RMM:   2    -0.828366141452E+02   -0.68706E-01   -0.92962E-01  2710   0.632E+00    0.776E-01
RMM:   3    -0.828425150030E+02   -0.59009E-02   -0.12884E-01  2775   0.171E+00    0.570E-01
RMM:   4    -0.828460694589E+02   -0.35545E-02   -0.26117E-02  2783   0.760E-01    0.381E-01
RMM:   5    -0.828450156380E+02    0.10538E-02   -0.11952E-02  2766   0.526E-01    0.266E-01
RMM:   6    -0.828436070676E+02    0.14086E-02   -0.46098E-03  2599   0.387E-01    0.130E-01
RMM:   7    -0.828433144884E+02    0.29258E-03   -0.13149E-03  2492   0.225E-01    0.570E-02
RMM:   8    -0.828432905202E+02    0.23968E-04   -0.46318E-04  2602   0.960E-02    0.250E-02
RMM:   9    -0.828433112863E+02   -0.20766E-04   -0.20696E-04  2238   0.587E-02    0.167E-02
RMM:  10    -0.828433097166E+02    0.15697E-05   -0.29279E-05  1462   0.349E-02
  68 F= -.85966705E+02 E0= -.85967834E+02  d E =-.383287E-01
       N       E                     dE             d eps       ncg     rms          rms(c)
DAV:   1    -0.828529463228E+02   -0.96350E-02   -0.54017E-01  2128   0.369E+00    0.227E-01
RMM:   2    -0.828546457461E+02   -0.16994E-02   -0.23029E-02  2848   0.869E-01    0.142E-01
RMM:   3    -0.828546184896E+02    0.27256E-04   -0.29841E-03  2785   0.246E-01    0.911E-02
RMM:   4    -0.828547229723E+02   -0.10448E-03   -0.99096E-04  2736   0.149E-01    0.859E-02
RMM:   5    -0.828544950244E+02    0.22795E-03   -0.35443E-04  2355   0.102E-01    0.383E-02
RMM:   6    -0.828544924600E+02    0.25644E-05   -0.12505E-04  2084   0.662E-02    0.192E-02
RMM:   7    -0.828544922254E+02    0.23460E-06   -0.35611E-05  1536   0.390E-02
  69 F= -.85977283E+02 E0= -.85978367E+02  d E =-.105777E-01
       N       E                     dE             d eps       ncg     rms          rms(c)
DAV:   1    -0.828567803235E+02   -0.22879E-02   -0.31489E-01  2032   0.281E+00    0.175E-01
RMM:   2    -0.828577339905E+02   -0.95367E-03   -0.13152E-02  2803   0.689E-01    0.109E-01
RMM:   3    -0.828577742592E+02   -0.40269E-04   -0.21540E-03  2773   0.207E-01    0.723E-02
RMM:   4    -0.828578171126E+02   -0.42853E-04   -0.62019E-04  2693   0.120E-01    0.661E-02
RMM:   5    -0.828576897384E+02    0.12737E-03   -0.19490E-04  2211   0.782E-02    0.307E-02
RMM:   6    -0.828576889247E+02    0.81372E-06   -0.67834E-05  1776   0.547E-02
  70 F= -.85980021E+02 E0= -.85981079E+02  d E =-.133158E-01
       N       E                     dE             d eps       ncg     rms          rms(c)
DAV:   1    -0.828657555800E+02   -0.80658E-02   -0.15359E-01  2016   0.191E+00    0.120E-01
RMM:   2    -0.828662619607E+02   -0.50638E-03   -0.55457E-03  2683   0.508E-01    0.714E-02
RMM:   3    -0.828664044369E+02   -0.14248E-03   -0.13018E-03  2728   0.179E-01    0.673E-02
RMM:   4    -0.828662635718E+02    0.14087E-03   -0.25708E-04  2364   0.921E-02    0.354E-02
RMM:   5    -0.828662691091E+02   -0.55373E-05   -0.69310E-05  1828   0.549E-02
  71 F= -.85988456E+02 E0= -.85989412E+02  d E =-.843488E-02
       N       E                     dE             d eps       ncg     rms          rms(c)
DAV:   1    -0.828810513432E+02   -0.14788E-01   -0.13817E+00  2000   0.572E+00    0.366E-01
RMM:   2    -0.828856209883E+02   -0.45696E-02   -0.49907E-02  2707   0.148E+00    0.215E-01
RMM:   3    -0.828867356903E+02   -0.11147E-02   -0.10210E-02  2776   0.493E-01    0.205E-01
RMM:   4    -0.828854413136E+02    0.12944E-02   -0.21375E-03  2649   0.254E-01    0.107E-01
RMM:   5    -0.828854589788E+02   -0.17665E-04   -0.70528E-04  2618   0.140E-01    0.625E-02
RMM:   6    -0.828854429680E+02    0.16011E-04   -0.24544E-04  2313   0.871E-02    0.197E-02
RMM:   7    -0.828854496144E+02   -0.66465E-05   -0.67699E-05  1775   0.476E-02
  72 F= -.86007230E+02 E0= -.86007883E+02  d E =-.272087E-01
       N       E                     dE             d eps       ncg     rms          rms(c)
DAV:   1    -0.828763884551E+02    0.90545E-02   -0.55484E+00  2000   0.115E+01    0.733E-01
RMM:   2    -0.828944777890E+02   -0.18089E-01   -0.19792E-01  2679   0.300E+00    0.429E-01
RMM:   3    -0.828992039223E+02   -0.47261E-02   -0.42444E-02  2782   0.998E-01    0.412E-01
RMM:   4    -0.828941917403E+02    0.50122E-02   -0.87906E-03  2670   0.508E-01    0.218E-01
RMM:   5    -0.828941705175E+02    0.21223E-04   -0.28494E-03  2666   0.280E-01    0.131E-01
RMM:   6    -0.828940840063E+02    0.86511E-04   -0.98166E-04  2606   0.165E-01    0.403E-02
RMM:   7    -0.828941191976E+02   -0.35191E-04   -0.30316E-04  2463   0.776E-02    0.147E-02
RMM:   8    -0.828941278943E+02   -0.86967E-05   -0.69824E-05  1811   0.473E-02
  73 F= -.86015222E+02 E0= -.86015323E+02  d E =-.352010E-01
       N       E                     dE             d eps       ncg     rms          rms(c)
DAV:   1    -0.828940508664E+02    0.68331E-04   -0.52827E-01  2000   0.356E+00    0.226E-01
RMM:   2    -0.828957812301E+02   -0.17304E-02   -0.18842E-02  2696   0.918E-01    0.134E-01
RMM:   3    -0.828961661550E+02   -0.38492E-03   -0.40237E-03  2764   0.309E-01    0.123E-01
RMM:   4    -0.828957053394E+02    0.46082E-03   -0.81362E-04  2569   0.166E-01    0.651E-02
RMM:   5    -0.828957057550E+02   -0.41564E-06   -0.24886E-04  2326   0.904E-02    0.379E-02
RMM:   6    -0.828957017846E+02    0.39704E-05   -0.87749E-05  1876   0.562E-02
  74 F= -.86016989E+02 E0= -.86017252E+02  d E =-.369684E-01
       N       E                     dE             d eps       ncg     rms          rms(c)
DAV:   1    -0.829037313284E+02   -0.80256E-02   -0.32731E-01  2000   0.281E+00    0.166E-01
RMM:   2    -0.829044931094E+02   -0.76178E-03   -0.10820E-02  2728   0.652E-01    0.780E-02
RMM:   3    -0.829046162162E+02   -0.12311E-03   -0.16468E-03  2711   0.188E-01    0.578E-02
RMM:   4    -0.829046424671E+02   -0.26251E-04   -0.39328E-04  2528   0.105E-01    0.486E-02
RMM:   5    -0.829045988860E+02    0.43581E-04   -0.88459E-05  1937   0.569E-02    0.189E-02
RMM:   6    -0.829046014155E+02   -0.25295E-05   -0.32238E-05  1461   0.460E-02
  75 F= -.86025591E+02 E0= -.86025758E+02  d E =-.860202E-02
       N       E                     dE             d eps       ncg     rms          rms(c)
DAV:   1    -0.829147775572E+02   -0.10179E-01   -0.29346E+00  2000   0.841E+00    0.496E-01
RMM:   2    -0.829218740520E+02   -0.70965E-02   -0.98582E-02  2725   0.198E+00    0.240E-01
RMM:   3    -0.829227284621E+02   -0.85441E-03   -0.13438E-02  2778   0.546E-01    0.176E-01
RMM:   4    -0.829230831526E+02   -0.35469E-03   -0.33979E-03  2741   0.281E-01    0.151E-01
[...]
 172 F= -.87251913E+02 E0= -.87255880E+02  d E =-.395382E-02
       N       E                     dE             d eps       ncg     rms          rms(c)
DAV:   1    -0.840896295267E+02   -0.43888E-03   -0.77369E-02  2112   0.143E+00    0.560E-02
RMM:   2    -0.840899190660E+02   -0.28954E-03   -0.31209E-03  2686   0.377E-01    0.313E-02
RMM:   3    -0.840899595149E+02   -0.40449E-04   -0.48589E-04  2484   0.109E-01    0.286E-02
RMM:   4    -0.840899445791E+02    0.14936E-04   -0.69278E-05  1663   0.583E-02    0.220E-02
RMM:   5    -0.840899400262E+02    0.45529E-05   -0.18975E-05  1298   0.391E-02
 173 F= -.87252834E+02 E0= -.87256746E+02  d E =-.920984E-03
       N       E                     dE             d eps       ncg     rms          rms(c)
DAV:   1    -0.840881141511E+02    0.18304E-02   -0.58698E-01  2000   0.395E+00    0.161E-01
RMM:   2    -0.840903070768E+02   -0.21929E-02   -0.23502E-02  2698   0.103E+00    0.855E-02
RMM:   3    -0.840906207606E+02   -0.31368E-03   -0.36134E-03  2733   0.289E-01    0.751E-02
RMM:   4    -0.840905459359E+02    0.74825E-04   -0.67555E-04  2660   0.134E-01    0.597E-02
RMM:   5    -0.840905033929E+02    0.42543E-04   -0.18264E-04  2293   0.745E-02    0.267E-02
RMM:   6    -0.840905079064E+02   -0.45134E-05   -0.91460E-05  1906   0.508E-02
 174 F= -.87253898E+02 E0= -.87257770E+02  d E =-.198486E-02
       N       E                     dE             d eps       ncg     rms          rms(c)
DAV:   1    -0.840908908616E+02   -0.38747E-03   -0.33667E-02  2192   0.952E-01    0.434E-02
RMM:   2    -0.840910158358E+02   -0.12497E-03   -0.14187E-03  2641   0.267E-01    0.211E-02
RMM:   3    -0.840910379598E+02   -0.22124E-04   -0.24482E-04  2083   0.762E-02    0.167E-02
RMM:   4    -0.840910404843E+02   -0.25245E-05   -0.38416E-05  1478   0.555E-02
 175 F= -.87254546E+02 E0= -.87258400E+02  d E =-.648088E-03
       N       E                     dE             d eps       ncg     rms          rms(c)
DAV:   1    -0.840909254887E+02    0.11247E-03   -0.30315E-01  2000   0.285E+00    0.119E-01
RMM:   2    -0.840919588007E+02   -0.10333E-02   -0.11639E-02  2578   0.785E-01    0.683E-02
RMM:   3    -0.840921697795E+02   -0.21098E-03   -0.23168E-03  2663   0.235E-01    0.529E-02
RMM:   4    -0.840921691536E+02    0.62594E-06   -0.41242E-04  2455   0.113E-01    0.435E-02
RMM:   5    -0.840921446897E+02    0.24464E-04   -0.79912E-05  1862   0.592E-02    0.244E-02
RMM:   6    -0.840921510464E+02   -0.63568E-05   -0.90531E-05  1896   0.507E-02
 176 F= -.87256004E+02 E0= -.87259874E+02  d E =-.210683E-02
       N       E                     dE             d eps       ncg     rms          rms(c)
DAV:   1    -0.840873286368E+02    0.48161E-02   -0.12102E+00  2000   0.570E+00    0.240E-01
RMM:   2    -0.840914065164E+02   -0.40779E-02   -0.46526E-02  2578   0.158E+00    0.129E-01
RMM:   3    -0.840922343358E+02   -0.82782E-03   -0.95410E-03  2729   0.472E-01    0.931E-02
RMM:   4    -0.840923224853E+02   -0.88149E-04   -0.15340E-03  2748   0.198E-01    0.837E-02
RMM:   5    -0.840921991556E+02    0.12333E-03   -0.33356E-04  2459   0.993E-02    0.500E-02
RMM:   6    -0.840922129860E+02   -0.13830E-04   -0.34538E-04  2579   0.919E-02    0.239E-02
RMM:   7    -0.840922013706E+02    0.11615E-04   -0.42098E-05  1563   0.439E-02    0.164E-02
RMM:   8    -0.840921968836E+02    0.44870E-05   -0.39968E-05  1558   0.385E-02
 177 F= -.87256754E+02 E0= -.87260605E+02  d E =-.285635E-02
       N       E                     dE             d eps       ncg     rms          rms(c)
DAV:   1    -0.840921465943E+02    0.54776E-04   -0.79286E-02  2000   0.146E+00    0.604E-02
RMM:   2    -0.840924115690E+02   -0.26497E-03   -0.30665E-03  2586   0.404E-01    0.329E-02
RMM:   3    -0.840924614451E+02   -0.49876E-04   -0.59835E-04  2325   0.120E-01    0.254E-02
RMM:   4    -0.840924685061E+02   -0.70610E-05   -0.91388E-05  1756   0.727E-02
 178 F= -.87256844E+02 E0= -.87260727E+02  d E =-.294635E-02
       N       E                     dE             d eps       ncg     rms          rms(c)
DAV:   1    -0.840929695846E+02   -0.50814E-03   -0.91008E-02  2000   0.156E+00    0.641E-02
RMM:   2    -0.840933217407E+02   -0.35216E-03   -0.38431E-03  2610   0.436E-01    0.300E-02
RMM:   3    -0.840933671387E+02   -0.45398E-04   -0.56786E-04  2474   0.124E-01    0.243E-02
RMM:   4    -0.840933659193E+02    0.12194E-05   -0.80544E-05  1738   0.663E-02
 179 F= -.87257905E+02 E0= -.87261796E+02  d E =-.106116E-02
       N       E                     dE             d eps       ncg     rms          rms(c)
DAV:   1    -0.840915334646E+02    0.18337E-02   -0.81958E-01  2000   0.468E+00    0.190E-01
RMM:   2    -0.840945006421E+02   -0.29672E-02   -0.32833E-02  2599   0.128E+00    0.105E-01
RMM:   3    -0.840948894325E+02   -0.38879E-03   -0.53459E-03  2724   0.363E-01    0.713E-02
RMM:   4    -0.840949054160E+02   -0.15984E-04   -0.72770E-04  2639   0.131E-01    0.438E-02
RMM:   5    -0.840949507855E+02   -0.45369E-04   -0.28088E-04  2432   0.859E-02    0.292E-02
RMM:   6    -0.840949165644E+02    0.34221E-04   -0.65255E-05  1743   0.517E-02    0.129E-02
RMM:   7    -0.840949129848E+02    0.35796E-05   -0.18042E-05  1254   0.368E-02
 180 F= -.87259948E+02 E0= -.87263862E+02  d E =-.310389E-02
       N       E                     dE             d eps       ncg     rms          rms(c)
DAV:   1    -0.840791222461E+02    0.15794E-01   -0.32910E+00  2000   0.936E+00    0.379E-01
RMM:   2    -0.840911649702E+02   -0.12043E-01   -0.13225E-01  2599   0.258E+00    0.203E-01
RMM:   3    -0.840927646159E+02   -0.15996E-02   -0.21756E-02  2754   0.726E-01    0.137E-01
RMM:   4    -0.840929305826E+02   -0.16597E-03   -0.29416E-03  2771   0.255E-01    0.101E-01
RMM:   5    -0.840929671588E+02   -0.36576E-04   -0.97267E-04  2724   0.156E-01    0.736E-02
RMM:   6    -0.840928337639E+02    0.13339E-03   -0.43508E-04  2575   0.110E-01    0.253E-02
RMM:   7    -0.840928233912E+02    0.10373E-04   -0.85760E-05  1873   0.549E-02    0.162E-02
RMM:   8    -0.840928220863E+02    0.13049E-05   -0.36715E-05  1525   0.407E-02
 181 F= -.87258868E+02 E0= -.87262879E+02  d E =-.202369E-02
       N       E                     dE             d eps       ncg     rms          rms(c)
DAV:   1    -0.840884796766E+02    0.43437E-02   -0.15402E+00  2000   0.641E+00    0.260E-01
RMM:   2    -0.840943471172E+02   -0.58674E-02   -0.64290E-02  2641   0.176E+00    0.135E-01
RMM:   3    -0.840949843056E+02   -0.63719E-03   -0.89035E-03  2733   0.475E-01    0.962E-02
RMM:   4    -0.840950750809E+02   -0.90775E-04   -0.13023E-03  2699   0.186E-01    0.728E-02
RMM:   5    -0.840950588464E+02    0.16235E-04   -0.42502E-04  2570   0.107E-01    0.526E-02
RMM:   6    -0.840950152217E+02    0.43625E-04   -0.21167E-04  2369   0.749E-02    0.167E-02
RMM:   7    -0.840950112239E+02    0.39978E-05   -0.32661E-05  1433   0.403E-02
 182 F= -.87260360E+02 E0= -.87264310E+02  d E =-.351660E-02
       N       E                     dE             d eps       ncg     rms          rms(c)
DAV:   1    -0.840955821044E+02   -0.56688E-03   -0.93646E-02  2016   0.155E+00    0.616E-02
RMM:   2    -0.840958927683E+02   -0.31066E-03   -0.33869E-03  2617   0.407E-01    0.299E-02
RMM:   3    -0.840959422316E+02   -0.49463E-04   -0.52145E-04  2411   0.119E-01    0.257E-02
RMM:   4    -0.840959320318E+02    0.10200E-04   -0.77636E-05  1672   0.666E-02    0.197E-02
RMM:   5    -0.840959285190E+02    0.35128E-05   -0.19720E-05  1312   0.346E-02
 183 F= -.87261474E+02 E0= -.87265434E+02  d E =-.111344E-02
       N       E                     dE             d eps       ncg     rms          rms(c)
DAV:   1    -0.840944318060E+02    0.15002E-02   -0.84514E-01  2000   0.466E+00    0.190E-01
RMM:   2    -0.840973015987E+02   -0.28698E-02   -0.31256E-02  2638   0.122E+00    0.882E-02
RMM:   3    -0.840976661858E+02   -0.36459E-03   -0.42305E-03  2694   0.338E-01    0.699E-02
RMM:   4    -0.840976576632E+02    0.85226E-05   -0.75142E-04  2621   0.150E-01    0.584E-02
RMM:   5    -0.840976088020E+02    0.48861E-04   -0.16966E-04  2212   0.703E-02    0.251E-02
RMM:   6    -0.840976162690E+02   -0.74671E-05   -0.93356E-05  1940   0.571E-02
 184 F= -.87263753E+02 E0= -.87267755E+02  d E =-.339263E-02
       N       E                     dE             d eps       ncg     rms          rms(c)
DAV:   1    -0.840834385856E+02    0.14170E-01   -0.33887E+00  2000   0.933E+00    0.380E-01
RMM:   2    -0.840948331516E+02   -0.11395E-01   -0.12426E-01  2623   0.244E+00    0.176E-01
RMM:   3    -0.840962539585E+02   -0.14208E-02   -0.17562E-02  2716   0.685E-01    0.135E-01
RMM:   4    -0.840963747013E+02   -0.12074E-03   -0.30160E-03  2755   0.290E-01    0.118E-01
RMM:   5    -0.840961400578E+02    0.23464E-03   -0.69852E-04  2601   0.131E-01    0.540E-02
RMM:   6    -0.840961681296E+02   -0.28072E-04   -0.37657E-04  2555   0.975E-02    0.179E-02
RMM:   7    -0.840961690502E+02   -0.92065E-06   -0.66891E-05  1755   0.428E-02
 185 F= -.87263502E+02 E0= -.87267608E+02  d E =-.314189E-02
       N       E                     dE             d eps       ncg     rms          rms(c)
DAV:   1    -0.840940224359E+02    0.21457E-02   -0.96349E-01  2000   0.498E+00    0.209E-01
RMM:   2    -0.840974578614E+02   -0.34354E-02   -0.37325E-02  2649   0.132E+00    0.981E-02
RMM:   3    -0.840978721791E+02   -0.41432E-03   -0.46503E-03  2692   0.361E-01    0.795E-02
RMM:   4    -0.840977999778E+02    0.72201E-04   -0.84009E-04  2620   0.163E-01    0.638E-02
RMM:   5    -0.840977467364E+02    0.53241E-04   -0.21457E-04  2300   0.777E-02    0.267E-02
RMM:   6    -0.840977553538E+02   -0.86174E-05   -0.11183E-04  2054   0.633E-02    0.109E-02
RMM:   7    -0.840977541089E+02    0.12449E-05   -0.20613E-05  1307   0.332E-02
 186 F= -.87264445E+02 E0= -.87268494E+02  d E =-.408492E-02
       N       E                     dE             d eps       ncg     rms          rms(c)
DAV:   1    -0.840980480527E+02   -0.29270E-03   -0.14152E-01  2128   0.192E+00    0.716E-02
RMM:   2    -0.840985344465E+02   -0.48639E-03   -0.53748E-03  2575   0.519E-01    0.433E-02
RMM:   3    -0.840986062206E+02   -0.71774E-04   -0.87390E-04  2464   0.152E-01    0.328E-02
RMM:   4    -0.840986065381E+02   -0.31753E-06   -0.15171E-04  2019   0.834E-02    0.267E-02
RMM:   5    -0.840985959442E+02    0.10594E-04   -0.25662E-05  1362   0.377E-02    0.133E-02
RMM:   6    -0.840985977808E+02   -0.18366E-05   -0.25466E-05  1343   0.347E-02
 187 F= -.87265496E+02 E0= -.87269565E+02  d E =-.105079E-02
       N       E                     dE             d eps       ncg     rms          rms(c)
DAV:   1    -0.840956138094E+02    0.29821E-02   -0.85069E-01  2000   0.470E+00    0.181E-01
RMM:   2    -0.840986003420E+02   -0.29865E-02   -0.32811E-02  2596   0.127E+00    0.107E-01
RMM:   3    -0.840990310085E+02   -0.43067E-03   -0.52461E-03  2683   0.366E-01    0.793E-02
RMM:   4    -0.840990317244E+02   -0.71588E-06   -0.96041E-04  2652   0.171E-01    0.651E-02
RMM:   5    -0.840989708255E+02    0.60899E-04   -0.18899E-04  2243   0.791E-02    0.330E-02
RMM:   6    -0.840989789322E+02   -0.81067E-05   -0.14681E-04  2194   0.674E-02    0.124E-02
RMM:   7    -0.840989769000E+02    0.20322E-05   -0.26968E-05  1383   0.381E-02
 188 F= -.87266386E+02 E0= -.87270496E+02  d E =-.194017E-02
       N       E                     dE             d eps       ncg     rms          rms(c)
DAV:   1    -0.840989141548E+02    0.64777E-04   -0.33478E-01  2000   0.296E+00    0.112E-01
RMM:   2    -0.841000474307E+02   -0.11333E-02   -0.12297E-02  2575   0.788E-01    0.576E-02
RMM:   3    -0.841002180767E+02   -0.17065E-03   -0.20259E-03  2613   0.229E-01    0.409E-02
RMM:   4    -0.841002491756E+02   -0.31099E-04   -0.34583E-04  2398   0.110E-01    0.369E-02
RMM:   5    -0.841002206969E+02    0.28479E-04   -0.64507E-05  1786   0.572E-02    0.183E-02
RMM:   6    -0.841002253773E+02   -0.46804E-05   -0.57599E-05  1669   0.403E-02
 189 F= -.87267857E+02 E0= -.87272010E+02  d E =-.147110E-02
       N       E                     dE             d eps       ncg     rms          rms(c)
DAV:   1    -0.840914895097E+02    0.87312E-02   -0.30066E+00  2000   0.887E+00    0.331E-01
RMM:   2    -0.841014258754E+02   -0.99364E-02   -0.10801E-01  2590   0.232E+00    0.170E-01
RMM:   3    -0.841028368346E+02   -0.14110E-02   -0.16928E-02  2711   0.656E-01    0.123E-01
RMM:   4    -0.841029844032E+02   -0.14757E-03   -0.29297E-03  2764   0.281E-01    0.110E-01
RMM:   5    -0.841027601085E+02    0.22429E-03   -0.62195E-04  2575   0.133E-01    0.553E-02
RMM:   6    -0.841027918457E+02   -0.31737E-04   -0.48102E-04  2628   0.103E-01    0.253E-02
RMM:   7    -0.841027807220E+02    0.11124E-04   -0.79430E-05  1857   0.514E-02    0.164E-02
RMM:   8    -0.841027778370E+02    0.28850E-05   -0.43512E-05  1628   0.398E-02
 190 F= -.87271087E+02 E0= -.87275355E+02  d E =-.470101E-02
       N       E                     dE             d eps       ncg     rms          rms(c)
DAV:   1    -0.840577633068E+02    0.45017E-01   -0.12050E+01  2000   0.178E+01    0.670E-01
RMM:   2    -0.840975560485E+02   -0.39793E-01   -0.43308E-01  2587   0.462E+00    0.346E-01
RMM:   3    -0.841029877525E+02   -0.54317E-02   -0.67093E-02  2710   0.131E+00    0.253E-01
RMM:   4    -0.841034020922E+02   -0.41434E-03   -0.11966E-02  2784   0.567E-01    0.227E-01
RMM:   5    -0.841024606843E+02    0.94141E-03   -0.25433E-03  2658   0.256E-01    0.116E-01
RMM:   6    -0.841025705110E+02   -0.10983E-03   -0.20122E-03  2754   0.209E-01    0.543E-02
RMM:   7    -0.841025181103E+02    0.52401E-04   -0.34558E-04  2384   0.984E-02    0.325E-02
RMM:   8    -0.841025080920E+02    0.10018E-04   -0.20652E-04  2351   0.681E-02    0.116E-02
RMM:   9    -0.841025125081E+02   -0.44161E-05   -0.32816E-05  1480   0.369E-02
 191 F= -.87272220E+02 E0= -.87276744E+02  d E =-.583448E-02
       N       E                     dE             d eps       ncg     rms          rms(c)
DAV:   1    -0.840961259685E+02    0.63821E-02   -0.18916E+00  2000   0.705E+00    0.265E-01
RMM:   2    -0.841026063714E+02   -0.64804E-02   -0.70084E-02  2589   0.186E+00    0.133E-01
RMM:   3    -0.841034289299E+02   -0.82256E-03   -0.10452E-02  2683   0.527E-01    0.935E-02
RMM:   4    -0.841036299858E+02   -0.20106E-03   -0.17968E-03  2742   0.223E-01    0.824E-02
RMM:   5    -0.841034942328E+02    0.13575E-03   -0.38734E-04  2488   0.105E-01    0.458E-02
RMM:   6    -0.841034939696E+02    0.26320E-06   -0.22224E-04  2405   0.771E-02    0.156E-02
RMM:   7    -0.841034918752E+02    0.20944E-05   -0.36767E-05  1482   0.382E-02
 192 F= -.87272637E+02 E0= -.87277060E+02  d E =-.625143E-02
       N       E                     dE             d eps       ncg     rms          rms(c)
DAV:   1    -0.840999084511E+02    0.35855E-02   -0.11435E+00  2000   0.547E+00    0.206E-01
RMM:   2    -0.841039819470E+02   -0.40735E-02   -0.43702E-02  2688   0.135E+00    0.119E-01
RMM:   3    -0.841045184022E+02   -0.53646E-03   -0.62621E-03  2742   0.385E-01    0.110E-01
RMM:   4    -0.841042381319E+02    0.28027E-03   -0.10674E-03  2703   0.173E-01    0.767E-02
RMM:   5    -0.841041799490E+02    0.58183E-04   -0.35448E-04  2507   0.961E-02    0.308E-02
RMM:   6    -0.841041847310E+02   -0.47820E-05   -0.16755E-04  2211   0.680E-02    0.149E-02
RMM:   7    -0.841041802848E+02    0.44462E-05   -0.25778E-05  1411   0.417E-02
 193 F= -.87273716E+02 E0= -.87278179E+02  d E =-.107885E-02
       N       E                     dE             d eps       ncg     rms          rms(c)
DAV:   1    -0.841042191081E+02   -0.34377E-04   -0.13807E-01  2240   0.190E+00    0.731E-02
RMM:   2    -0.841047121382E+02   -0.49303E-03   -0.52869E-03  2670   0.477E-01    0.417E-02
RMM:   3    -0.841047822059E+02   -0.70068E-04   -0.77495E-04  2558   0.137E-01    0.373E-02
RMM:   4    -0.841047460013E+02    0.36205E-04   -0.12777E-04  1961   0.734E-02    0.258E-02
RMM:   5    -0.841047407032E+02    0.52982E-05   -0.35689E-05  1466   0.451E-02
 194 F= -.87274140E+02 E0= -.87278583E+02  d E =-.150280E-02
       N       E                     dE             d eps       ncg     rms          rms(c)
DAV:   1    -0.841048846448E+02   -0.13864E-03   -0.18831E-01  2016   0.226E+00    0.937E-02
RMM:   2    -0.841055532149E+02   -0.66857E-03   -0.74192E-03  2659   0.609E-01    0.451E-02
RMM:   3    -0.841056317788E+02   -0.78564E-04   -0.11641E-03  2555   0.164E-01    0.353E-02
RMM:   4    -0.841056327751E+02   -0.99628E-06   -0.16111E-04  1979   0.774E-02    0.233E-02
RMM:   5    -0.841056369221E+02   -0.41471E-05   -0.39706E-05  1540   0.498E-02
 195 F= -.87275274E+02 E0= -.87279712E+02  d E =-.113435E-02
       N       E                     dE             d eps       ncg     rms          rms(c)
DAV:   1    -0.841042892821E+02    0.13435E-02   -0.36485E-01  2000   0.315E+00    0.134E-01
RMM:   2    -0.841055727969E+02   -0.12835E-02   -0.14373E-02  2657   0.846E-01    0.628E-02
RMM:   3    -0.841057411003E+02   -0.16830E-03   -0.22935E-03  2703   0.234E-01    0.502E-02
RMM:   4    -0.841057697589E+02   -0.28659E-04   -0.39071E-04  2448   0.103E-01    0.464E-02
RMM:   5    -0.841057347686E+02    0.34990E-04   -0.76272E-05  1820   0.590E-02    0.277E-02
RMM:   6    -0.841057356998E+02   -0.93116E-06   -0.82323E-05  1926   0.506E-02
 196 F= -.87275709E+02 E0= -.87280072E+02  d E =-.156953E-02
       N       E                     dE             d eps       ncg     rms          rms(c)
DAV:   1    -0.841059756561E+02   -0.24089E-03   -0.10221E-01  2016   0.166E+00    0.689E-02
RMM:   2    -0.841063363162E+02   -0.36066E-03   -0.40452E-03  2526   0.471E-01    0.372E-02
RMM:   3    -0.841064101668E+02   -0.73851E-04   -0.88579E-04  2514   0.146E-01    0.261E-02
RMM:   4    -0.841064182953E+02   -0.81285E-05   -0.12321E-04  1958   0.756E-02    0.223E-02
RMM:   5    -0.841064111851E+02    0.71102E-05   -0.27502E-05  1390   0.430E-02
 197 F= -.87276530E+02 E0= -.87280873E+02  d E =-.820364E-03
       N       E                     dE             d eps       ncg     rms          rms(c)
DAV:   1    -0.841035019734E+02    0.29163E-02   -0.92153E-01  2000   0.499E+00    0.201E-01
RMM:   2    -0.841067639703E+02   -0.32620E-02   -0.36135E-02  2567   0.139E+00    0.112E-01
RMM:   3    -0.841073651973E+02   -0.60123E-03   -0.74151E-03  2746   0.415E-01    0.784E-02
RMM:   4    -0.841074006240E+02   -0.35427E-04   -0.10514E-03  2695   0.164E-01    0.695E-02
RMM:   5    -0.841073153341E+02    0.85290E-04   -0.23818E-04  2350   0.882E-02    0.399E-02
RMM:   6    -0.841073226868E+02   -0.73527E-05   -0.23032E-04  2449   0.774E-02    0.167E-02
RMM:   7    -0.841073170427E+02    0.56441E-05   -0.30391E-05  1441   0.391E-02
 198 F= -.87277878E+02 E0= -.87282158E+02  d E =-.216828E-02
       N       E                     dE             d eps       ncg     rms          rms(c)
DAV:   1    -0.841068875661E+02    0.43512E-03   -0.83185E-02  2224   0.150E+00    0.622E-02
RMM:   2    -0.841072021787E+02   -0.31461E-03   -0.34597E-03  2572   0.427E-01    0.342E-02
RMM:   3    -0.841072581470E+02   -0.55968E-04   -0.66781E-04  2456   0.126E-01    0.256E-02
RMM:   4    -0.841072609928E+02   -0.28458E-05   -0.10155E-04  1855   0.731E-02    0.208E-02
RMM:   5    -0.841072547817E+02    0.62110E-05   -0.22501E-05  1352   0.384E-02
 199 F= -.87277950E+02 E0= -.87282212E+02  d E =-.224028E-02
       N       E                     dE             d eps       ncg     rms          rms(c)
DAV:   1    -0.841074590418E+02   -0.19805E-03   -0.75955E-02  2208   0.144E+00    0.634E-02
RMM:   2    -0.841077216079E+02   -0.26257E-03   -0.28756E-03  2731   0.351E-01    0.299E-02
RMM:   3    -0.841077643160E+02   -0.42708E-04   -0.38884E-04  2451   0.959E-02    0.286E-02
RMM:   4    -0.841077423288E+02    0.21987E-04   -0.69189E-05  1724   0.614E-02    0.195E-02
RMM:   5    -0.841077399644E+02    0.23644E-05   -0.25772E-05  1365   0.350E-02
 200 F= -.87278499E+02 E0= -.87282783E+02  d E =-.549023E-03
