       N       E                     dE             d eps       ncg     rms          rms(c)
DAV:   1     0.293166285168E+04    0.29317E+04   -0.89351E+04  6984   0.229E+03
DAV:   2     0.604960704413E+03   -0.23267E+04   -0.22296E+04  5640   0.752E+02
DAV:   3    -0.720501206156E+01   -0.61217E+03   -0.58395E+03  6632   0.268E+02
DAV:   4    -0.940219513530E+02   -0.86817E+02   -0.85088E+02  7760   0.105E+02
DAV:   5    -0.100095380838E+03   -0.60734E+01   -0.59962E+01  8192   0.277E+01    0.281E+01
DAV:   6    -0.992508366517E+02    0.84454E+00   -0.45503E+01  8744   0.225E+01    0.321E+01
DAV:   7    -0.988785203330E+02    0.37232E+00   -0.17710E+02  7056   0.292E+01    0.188E+01
DAV:   8    -0.995157851692E+02   -0.63726E+00   -0.39339E+01  7416   0.199E+01    0.172E+01
DAV:   9    -0.962899244535E+02    0.32259E+01   -0.19895E+01  6776   0.110E+01    0.112E+01
DAV:  10    -0.936494930926E+02    0.26404E+01   -0.54815E+00  7048   0.739E+00    0.794E+00
DAV:  11    -0.927227070658E+02    0.92679E+00   -0.23337E+00  7936   0.425E+00    0.461E+00
DAV:  12    -0.924547084173E+02    0.26800E+00   -0.44811E-01  8512   0.193E+00    0.225E+00
DAV:  13    -0.924787113611E+02   -0.24003E-01   -0.71761E-02  7296   0.154E+00    0.232E+00
DAV:  14    -0.924111676289E+02    0.67544E-01   -0.88556E-02  7576   0.117E+00    0.114E+00
DAV:  15    -0.923988505585E+02    0.12317E-01   -0.77011E-02  7800   0.742E-01    0.429E-01
DAV:  16    -0.924017392898E+02   -0.28887E-02   -0.30814E-02  6696   0.641E-01    0.573E-01
DAV:  17    -0.923975998107E+02    0.41395E-02   -0.44131E-03  7088   0.262E-01    0.297E-01
DAV:  18    -0.923962016501E+02    0.13982E-02   -0.43006E-03  7232   0.218E-01    0.588E-02
DAV:  19    -0.923961646103E+02    0.37040E-04   -0.68855E-04  7656   0.100E-01    0.537E-02
DAV:  20    -0.923962300097E+02   -0.65399E-04   -0.25190E-04  5568   0.729E-02    0.403E-02
DAV:  21    -0.923963366739E+02   -0.10666E-03   -0.86222E-05  5512   0.404E-02    0.337E-02
DAV:  22    -0.923965325882E+02   -0.19591E-03   -0.52812E-05  4696   0.282E-02    0.245E-02
DAV:  23    -0.923966599736E+02   -0.12739E-03   -0.25737E-05  5144   0.184E-02    0.661E-03
DAV:  24    -0.923967842311E+02   -0.12426E-03   -0.12783E-05  4648   0.143E-02    0.117E-02
DAV:  25    -0.923968513095E+02   -0.67078E-04   -0.23036E-06  4032   0.106E-02    0.102E-02
DAV:  26    -0.923969003013E+02   -0.48992E-04   -0.23930E-06  4056   0.821E-03    0.704E-03
DAV:  27    -0.923969135929E+02   -0.13292E-04   -0.15045E-06  3656   0.649E-03    0.301E-03
DAV:  28    -0.923969210678E+02   -0.74749E-05   -0.11767E-06  3712   0.445E-03
   1 F= -.95313395E+02 E0= -.95311109E+02  d E =-.953134E+02
       N       E                     dE             d eps       ncg     rms          rms(c)
DAV:   1    -0.920464910609E+02    0.35042E+00   -0.13832E+01  5632   0.567E+00    0.153E+00
DAV:   2    -0.920328324698E+02    0.13659E-01   -0.34406E-01  7240   0.102E+00    0.895E-01
DAV:   3    -0.920239053506E+02    0.89271E-02   -0.10038E-01  7304   0.545E-01    0.557E-01
DAV:   4    -0.920279588296E+02   -0.40535E-02   -0.44598E-02  7360   0.494E-01    0.678E-01
DAV:   5    -0.920219841864E+02    0.59746E-02   -0.18875E-02  7192   0.484E-01    0.164E-01
DAV:   6    -0.920224026718E+02   -0.41849E-03   -0.10601E-02  6632   0.444E-01    0.148E-01
DAV:   7    -0.920215528592E+02    0.84981E-03   -0.34221E-03  5824   0.292E-01    0.296E-02
DAV:   8    -0.920215653876E+02   -0.12528E-04   -0.15055E-04  6440   0.422E-02    0.170E-02
DAV:   9    -0.920215731714E+02   -0.77838E-05   -0.12960E-05  4552   0.181E-02
   2 F= -.94938810E+02 E0= -.94936586E+02  d E =0.374585E+00
       N       E                     dE             d eps       ncg     rms          rms(c)
DAV:   1    -0.924284270792E+02   -0.40686E+00   -0.11909E+01  5672   0.464E+00    0.137E+00
DAV:   2    -0.924056846423E+02    0.22742E-01   -0.27542E-01  6976   0.895E-01    0.886E-01
DAV:   3    -0.923995362518E+02    0.61484E-02   -0.31099E-02  7848   0.305E-01    0.672E-01
DAV:   4    -0.924209941547E+02   -0.21458E-01   -0.61044E-02  7872   0.575E-01    0.137E+00
DAV:   5    -0.923992255453E+02    0.21769E-01   -0.64898E-02  7576   0.678E-01    0.176E-01
DAV:   6    -0.923990219950E+02    0.20355E-03   -0.85763E-03  6480   0.413E-01    0.981E-02
DAV:   7    -0.923987956296E+02    0.22637E-03   -0.15802E-03  5968   0.165E-01    0.408E-02
DAV:   8    -0.923988008711E+02   -0.52416E-05   -0.15392E-04  7216   0.422E-02    0.295E-02
DAV:   9    -0.923988054907E+02   -0.46196E-05   -0.78537E-06  4296   0.126E-02
   3 F= -.95315336E+02 E0= -.95313051E+02  d E =-.194081E-02
       N       E                     dE             d eps       ncg     rms          rms(c)
DAV:   1    -0.923983318141E+02    0.46906E-03   -0.31311E-01  5896   0.189E+00    0.859E-02
DAV:   2    -0.923999561884E+02   -0.16244E-02   -0.16967E-02  6360   0.448E-01    0.630E-02
DAV:   3    -0.924000778221E+02   -0.12163E-03   -0.13448E-03  7704   0.141E-01    0.870E-02
DAV:   4    -0.923999910958E+02    0.86726E-04   -0.32318E-04  5968   0.568E-02    0.255E-02
DAV:   5    -0.923999859008E+02    0.51950E-05   -0.85967E-05  5160   0.468E-02
   4 F= -.95317204E+02 E0= -.95314962E+02  d E =-.186758E-02
       N       E                     dE             d eps       ncg     rms          rms(c)
DAV:   1    -0.923869366292E+02    0.13054E-01   -0.28216E+00  5904   0.569E+00    0.256E-01
DAV:   2    -0.924017858888E+02   -0.14849E-01   -0.15545E-01  6560   0.136E+00    0.188E-01
DAV:   3    -0.924026907901E+02   -0.90490E-03   -0.11670E-02  7032   0.458E-01    0.242E-01
DAV:   4    -0.924020738936E+02    0.61690E-03   -0.28234E-03  7568   0.180E-01    0.861E-02
DAV:   5    -0.924020056331E+02    0.68260E-04   -0.79940E-04  7144   0.137E-01    0.603E-02
DAV:   6    -0.924020028344E+02    0.27987E-05   -0.19582E-04  5728   0.664E-02    0.341E-02
DAV:   7    -0.924020074730E+02   -0.46386E-05   -0.85934E-05  6104   0.436E-02
   5 F= -.95321312E+02 E0= -.95319174E+02  d E =-.597632E-02
       N       E                     dE             d eps       ncg     rms          rms(c)
DAV:   1    -0.923375203703E+02    0.64482E-01   -0.11301E+01  5896   0.114E+01    0.521E-01
DAV:   2    -0.923979170835E+02   -0.60397E-01   -0.63494E-01  6688   0.279E+00    0.337E-01
DAV:   3    -0.924018177020E+02   -0.39006E-02   -0.45051E-02  7032   0.953E-01    0.470E-01
DAV:   4    -0.923994870824E+02    0.23306E-02   -0.11183E-02  7624   0.369E-01    0.163E-01
DAV:   5    -0.923992830215E+02    0.20406E-03   -0.29235E-03  7744   0.260E-01    0.115E-01
DAV:   6    -0.923992556161E+02    0.27405E-04   -0.89550E-04  7080   0.150E-01    0.703E-02
DAV:   7    -0.923992573347E+02   -0.17186E-05   -0.35116E-04  7264   0.931E-02    0.286E-02
DAV:   8    -0.923992426719E+02    0.14663E-04   -0.83571E-05  6600   0.503E-02    0.836E-03
DAV:   9    -0.923992433881E+02   -0.71620E-06   -0.12644E-05  4288   0.191E-02
   6 F= -.95322840E+02 E0= -.95320930E+02  d E =-.750374E-02
       N       E                     dE             d eps       ncg     rms          rms(c)
DAV:   1    -0.923939238153E+02    0.53189E-02   -0.13884E+00  5888   0.399E+00    0.182E-01
DAV:   2    -0.924012927963E+02   -0.73690E-02   -0.75979E-02  6592   0.938E-01    0.170E-01
DAV:   3    -0.924016840969E+02   -0.39130E-03   -0.65094E-03  7656   0.276E-01    0.187E-01
DAV:   4    -0.924012648115E+02    0.41929E-03   -0.15459E-03  6688   0.130E-01    0.532E-02
DAV:   5    -0.924012358313E+02    0.28980E-04   -0.42067E-04  6968   0.104E-01    0.395E-02
DAV:   6    -0.924012339474E+02    0.18839E-05   -0.98221E-05  5432   0.447E-02
   7 F= -.95323307E+02 E0= -.95321314E+02  d E =-.797057E-02
       N       E                     dE             d eps       ncg     rms          rms(c)
DAV:   1    -0.923961547750E+02    0.50811E-02   -0.13127E+00  5840   0.328E+00    0.218E-01
DAV:   2    -0.924003543215E+02   -0.41995E-02   -0.46860E-02  6592   0.733E-01    0.162E-01
DAV:   3    -0.924009802957E+02   -0.62597E-03   -0.58857E-03  7832   0.322E-01    0.222E-01
DAV:   4    -0.924003331379E+02    0.64716E-03   -0.23523E-03  7304   0.185E-01    0.842E-02
DAV:   5    -0.924003168439E+02    0.16294E-04   -0.20474E-04  6544   0.689E-02    0.377E-02
DAV:   6    -0.924003218004E+02   -0.49565E-05   -0.84454E-05  6608   0.533E-02
   8 F= -.95323243E+02 E0= -.95321229E+02  d E =0.640854E-04
       N       E                     dE             d eps       ncg     rms          rms(c)
DAV:   1    -0.924004694935E+02   -0.15265E-03   -0.34677E-01  5808   0.168E+00    0.111E-01
DAV:   2    -0.924015902052E+02   -0.11207E-02   -0.12281E-02  6640   0.382E-01    0.895E-02
DAV:   3    -0.924017369779E+02   -0.14677E-03   -0.18333E-03  7616   0.183E-01    0.114E-01
DAV:   4    -0.924015532786E+02    0.18370E-03   -0.60080E-04  6568   0.102E-01    0.414E-02
DAV:   5    -0.924015587806E+02   -0.55020E-05   -0.78677E-05  5824   0.430E-02
   9 F= -.95324043E+02 E0= -.95322037E+02  d E =-.736259E-03
       N       E                     dE             d eps       ncg     rms          rms(c)
DAV:   1    -0.924016909898E+02   -0.13771E-03   -0.11506E-02  5896   0.321E-01    0.256E-02
DAV:   2    -0.924017488180E+02   -0.57828E-04   -0.56982E-04  6560   0.962E-02    0.276E-02
DAV:   3    -0.924017354756E+02    0.13342E-04   -0.12838E-04  5704   0.590E-02    0.119E-02
DAV:   4    -0.924017349776E+02    0.49797E-06   -0.15593E-05  3904   0.175E-02
  10 F= -.95324296E+02 E0= -.95322286E+02  d E =-.253240E-03
       N       E                     dE             d eps       ncg     rms          rms(c)
DAV:   1    -0.924018691366E+02   -0.13366E-03   -0.10400E-01  5856   0.938E-01    0.554E-02
DAV:   2    -0.924022674847E+02   -0.39835E-03   -0.40269E-03  6520   0.219E-01    0.542E-02
DAV:   3    -0.924022897625E+02   -0.22278E-04   -0.59511E-04  7216   0.105E-01    0.548E-02
DAV:   4    -0.924022483987E+02    0.41364E-04   -0.14077E-04  5696   0.493E-02    0.180E-02
DAV:   5    -0.924022518491E+02   -0.34503E-05   -0.21524E-05  4272   0.225E-02
  11 F= -.95325045E+02 E0= -.95323032E+02  d E =-.100155E-02
       N       E                     dE             d eps       ncg     rms          rms(c)
DAV:   1    -0.924016060462E+02    0.64235E-03   -0.41510E-01  5856   0.188E+00    0.109E-01
DAV:   2    -0.924031254147E+02   -0.15194E-02   -0.15866E-02  6496   0.429E-01    0.825E-02
DAV:   3    -0.924033068980E+02   -0.18148E-03   -0.19906E-03  7512   0.193E-01    0.111E-01
DAV:   4    -0.924031293794E+02    0.17752E-03   -0.63571E-04  6456   0.103E-01    0.378E-02
DAV:   5    -0.924031438204E+02   -0.14441E-04   -0.97577E-05  5744   0.476E-02    0.286E-02
DAV:   6    -0.924031311510E+02    0.12669E-04   -0.10870E-04  5648   0.535E-02    0.136E-02
DAV:   7    -0.924031311369E+02    0.14090E-07   -0.12905E-05  3464   0.213E-02
  12 F= -.95326388E+02 E0= -.95324356E+02  d E =-.234514E-02
       N       E                     dE             d eps       ncg     rms          rms(c)
DAV:   1    -0.923982732678E+02    0.48579E-02   -0.16606E+00  5856   0.375E+00    0.221E-01
DAV:   2    -0.924043551037E+02   -0.60818E-02   -0.63610E-02  6480   0.843E-01    0.161E-01
DAV:   3    -0.924051371714E+02   -0.78207E-03   -0.73547E-03  7728   0.353E-01    0.227E-01
DAV:   4    -0.924044089287E+02    0.72824E-03   -0.25894E-03  7360   0.200E-01    0.707E-02
DAV:   5    -0.924044101011E+02   -0.11723E-05   -0.20286E-04  6296   0.660E-02    0.342E-02
DAV:   6    -0.924044306796E+02   -0.20579E-04   -0.18969E-04  6112   0.706E-02    0.291E-02
DAV:   7    -0.924044117458E+02    0.18934E-04   -0.92848E-05  5104   0.498E-02    0.750E-03
DAV:   8    -0.924044130396E+02   -0.12938E-05   -0.10149E-05  3752   0.137E-02
  13 F= -.95328604E+02 E0= -.95326539E+02  d E =-.456142E-02
       N       E                     dE             d eps       ncg     rms          rms(c)
DAV:   1    -0.923795475654E+02    0.24864E-01   -0.66482E+00  5856   0.753E+00    0.440E-01
DAV:   2    -0.924046074786E+02   -0.25060E-01   -0.26183E-01  6632   0.171E+00    0.326E-01
DAV:   3    -0.924077240302E+02   -0.31166E-02   -0.29983E-02  7760   0.723E-01    0.456E-01
DAV:   4    -0.924048430634E+02    0.28810E-02   -0.10498E-02  7376   0.402E-01    0.143E-01
DAV:   5    -0.924048383104E+02    0.47530E-05   -0.79669E-04  7680   0.141E-01    0.698E-02
DAV:   6    -0.924049201170E+02   -0.81807E-04   -0.70601E-04  7264   0.133E-01    0.583E-02
DAV:   7    -0.924048422394E+02    0.77878E-04   -0.39418E-04  6424   0.102E-01    0.163E-02
DAV:   8    -0.924048460894E+02   -0.38500E-05   -0.35648E-05  5344   0.293E-02
  14 F= -.95330931E+02 E0= -.95328808E+02  d E =-.688755E-02
       N       E                     dE             d eps       ncg     rms          rms(c)
DAV:   1    -0.924031174979E+02    0.17247E-02   -0.37581E-01  5856   0.178E+00    0.109E-01
DAV:   2    -0.924045016270E+02   -0.13841E-02   -0.14396E-02  6640   0.403E-01    0.851E-02
DAV:   3    -0.924046770210E+02   -0.17539E-03   -0.18181E-03  7816   0.175E-01    0.113E-01
DAV:   4    -0.924044963827E+02    0.18064E-03   -0.61989E-04  6256   0.966E-02    0.335E-02
DAV:   5    -0.924044972466E+02   -0.86394E-06   -0.47099E-05  5488   0.280E-02
  15 F= -.95331037E+02 E0= -.95328905E+02  d E =-.699411E-02
       N       E                     dE             d eps       ncg     rms          rms(c)
DAV:   1    -0.924045853493E+02   -0.88967E-04   -0.52223E-02  5752   0.655E-01    0.619E-02
DAV:   2    -0.924047519470E+02   -0.16660E-03   -0.22623E-03  6432   0.156E-01    0.482E-02
DAV:   3    -0.924047937882E+02   -0.41841E-04   -0.41466E-04  7208   0.735E-02    0.673E-02
DAV:   4    -0.924047370519E+02    0.56736E-04   -0.18072E-04  5856   0.512E-02    0.241E-02
DAV:   5    -0.924047431205E+02   -0.60685E-05   -0.56808E-05  5048   0.331E-02
  16 F= -.95331169E+02 E0= -.95329038E+02  d E =-.131883E-03
       N       E                     dE             d eps       ncg     rms          rms(c)
DAV:   1    -0.924047447904E+02   -0.77384E-05   -0.71561E-03  6128   0.252E-01    0.227E-02
DAV:   2    -0.924047791663E+02   -0.34376E-04   -0.41612E-04  6736   0.859E-02    0.172E-02
DAV:   3    -0.924047721352E+02    0.70310E-05   -0.12509E-04  5360   0.597E-02    0.157E-02
DAV:   4    -0.924047693641E+02    0.27711E-05   -0.26964E-05  4336   0.244E-02
  17 F= -.95331237E+02 E0= -.95329099E+02  d E =-.200042E-03
       N       E                     dE             d eps       ncg     rms          rms(c)
DAV:   1    -0.924049756970E+02   -0.20356E-03   -0.23161E-02  5936   0.498E-01    0.315E-02
DAV:   2    -0.924051111430E+02   -0.13545E-03   -0.14380E-03  6240   0.129E-01    0.155E-02
DAV:   3    -0.924051252468E+02   -0.14104E-04   -0.18363E-04  6560   0.689E-02    0.212E-02
DAV:   4    -0.924051148481E+02    0.10399E-04   -0.52155E-05  4544   0.352E-02    0.120E-02
DAV:   5    -0.924051145300E+02    0.31818E-06   -0.10928E-05  3824   0.132E-02
  18 F= -.95331527E+02 E0= -.95329392E+02  d E =-.289435E-03
       N       E                     dE             d eps       ncg     rms          rms(c)
DAV:   1    -0.924046829701E+02    0.43188E-03   -0.20950E-01  5936   0.150E+00    0.921E-02
DAV:   2    -0.924059430833E+02   -0.12601E-02   -0.12996E-02  6440   0.382E-01    0.704E-02
DAV:   3    -0.924060697816E+02   -0.12670E-03   -0.19312E-03  7560   0.201E-01    0.931E-02
DAV:   4    -0.924059322144E+02    0.13757E-03   -0.44530E-04  6352   0.885E-02    0.290E-02
DAV:   5    -0.924059378411E+02   -0.56268E-05   -0.93184E-05  5408   0.474E-02
  19 F= -.95332185E+02 E0= -.95330052E+02  d E =-.947410E-03
       N       E                     dE             d eps       ncg     rms          rms(c)
DAV:   1    -0.924015937861E+02    0.43384E-02   -0.83767E-01  5936   0.299E+00    0.184E-01
DAV:   2    -0.924066581707E+02   -0.50644E-02   -0.52083E-02  6576   0.777E-01    0.143E-01
DAV:   3    -0.924071155422E+02   -0.45737E-03   -0.80369E-03  7656   0.407E-01    0.182E-01
DAV:   4    -0.924065921847E+02    0.52336E-03   -0.17396E-03  6960   0.180E-01    0.614E-02
DAV:   5    -0.924066059226E+02   -0.13738E-04   -0.38566E-04  6552   0.922E-02    0.476E-02
DAV:   6    -0.924065824131E+02    0.23510E-04   -0.27531E-04  6512   0.787E-02    0.194E-02
DAV:   7    -0.924065826565E+02   -0.24338E-06   -0.45993E-05  5960   0.343E-02
  20 F= -.95332507E+02 E0= -.95330390E+02  d E =-.126970E-02
       N       E                     dE             d eps       ncg     rms          rms(c)
DAV:   1    -0.924061528943E+02    0.42952E-03   -0.62333E-02  5896   0.816E-01    0.498E-02
DAV:   2    -0.924065312489E+02   -0.37835E-03   -0.38984E-03  6248   0.212E-01    0.382E-02
DAV:   3    -0.924065717577E+02   -0.40509E-04   -0.55626E-04  7304   0.107E-01    0.517E-02
DAV:   4    -0.924065293394E+02    0.42418E-04   -0.13389E-04  5664   0.474E-02    0.141E-02
DAV:   5    -0.924065310830E+02   -0.17436E-05   -0.22364E-05  4272   0.232E-02
  21 F= -.95332542E+02 E0= -.95330426E+02  d E =-.130518E-02
       N       E                     dE             d eps       ncg     rms          rms(c)
DAV:   1    -0.924065411551E+02   -0.11816E-04   -0.22493E-02  5760   0.409E-01    0.414E-02
DAV:   2    -0.924065852107E+02   -0.44056E-04   -0.79543E-04  6392   0.975E-02    0.280E-02
DAV:   3    -0.924065946739E+02   -0.94632E-05   -0.18287E-04  6512   0.683E-02    0.298E-02
DAV:   4    -0.924065806962E+02    0.13978E-04   -0.83548E-05  4704   0.423E-02    0.216E-02
DAV:   5    -0.924065841515E+02   -0.34553E-05   -0.32667E-05  4728   0.195E-02
  22 F= -.95332557E+02 E0= -.95330445E+02  d E =-.147858E-04
       N       E                     dE             d eps       ncg     rms          rms(c)
DAV:   1    -0.924066126146E+02   -0.31918E-04   -0.50903E-03  5600   0.194E-01    0.193E-02
DAV:   2    -0.924066250266E+02   -0.12412E-04   -0.19382E-04  6504   0.470E-02    0.130E-02
DAV:   3    -0.924066265278E+02   -0.15013E-05   -0.19311E-05  5016   0.152E-02
  23 F= -.95332618E+02 E0= -.95330490E+02  d E =-.752680E-04
       N       E                     dE             d eps       ncg     rms          rms(c)
DAV:   1    -0.924067105080E+02   -0.85481E-04   -0.24006E-03  5704   0.153E-01    0.120E-02
DAV:   2    -0.924067279566E+02   -0.17449E-04   -0.13528E-04  6552   0.481E-02    0.231E-02
DAV:   3    -0.924067196359E+02    0.83207E-05   -0.38450E-05  4432   0.283E-02
  24 F= -.95332692E+02 E0= -.95330574E+02  d E =-.747741E-04
       N       E                     dE             d eps       ncg     rms          rms(c)
DAV:   1    -0.924069185063E+02   -0.19055E-03   -0.22006E-02  5792   0.457E-01    0.245E-02
DAV:   2    -0.924069992902E+02   -0.80784E-04   -0.86595E-04  6288   0.108E-01    0.147E-02
DAV:   3    -0.924070056993E+02   -0.64091E-05   -0.90901E-05  6000   0.499E-02
  25 F= -.95332923E+02 E0= -.95330807E+02  d E =-.305862E-03
       N       E                     dE             d eps       ncg     rms          rms(c)
DAV:   1    -0.924072003069E+02   -0.20102E-03   -0.87871E-02  5816   0.913E-01    0.498E-02
DAV:   2    -0.924075209492E+02   -0.32064E-03   -0.34293E-03  6520   0.209E-01    0.346E-02
DAV:   3    -0.924075457406E+02   -0.24791E-04   -0.27029E-04  7632   0.684E-02    0.424E-02
DAV:   4    -0.924075308127E+02    0.14928E-04   -0.71726E-05  5176   0.270E-02    0.207E-02
DAV:   5    -0.924075363660E+02   -0.55533E-05   -0.61002E-05  4192   0.388E-02
  26 F= -.95333344E+02 E0= -.95331208E+02  d E =-.726842E-03
       N       E                     dE             d eps       ncg     rms          rms(c)
DAV:   1    -0.924071314173E+02    0.39940E-03   -0.34971E-01  5800   0.183E+00    0.967E-02
DAV:   2    -0.924084152146E+02   -0.12838E-02   -0.13791E-02  6352   0.418E-01    0.566E-02
DAV:   3    -0.924085229263E+02   -0.10771E-03   -0.13462E-03  7584   0.181E-01    0.653E-02
DAV:   4    -0.924084539281E+02    0.68998E-04   -0.45123E-04  6472   0.964E-02    0.407E-02
DAV:   5    -0.924084670701E+02   -0.13142E-04   -0.12932E-04  6224   0.421E-02    0.386E-02
DAV:   6    -0.924084498355E+02    0.17235E-04   -0.88151E-05  5776   0.424E-02    0.104E-02
DAV:   7    -0.924084503756E+02   -0.54008E-06   -0.92151E-06  3848   0.166E-02
  27 F= -.95334040E+02 E0= -.95331899E+02  d E =-.142253E-02
       N       E                     dE             d eps       ncg     rms          rms(c)
DAV:   1    -0.924044660654E+02    0.39838E-02   -0.13995E+00  5792   0.365E+00    0.193E-01
DAV:   2    -0.924096146650E+02   -0.51486E-02   -0.55282E-02  6312   0.824E-01    0.110E-01
DAV:   3    -0.924100488571E+02   -0.43419E-03   -0.46229E-03  7928   0.318E-01    0.134E-01
DAV:   4    -0.924097920056E+02    0.25685E-03   -0.16130E-03  7024   0.174E-01    0.771E-02
DAV:   5    -0.924098323093E+02   -0.40304E-04   -0.39253E-04  6688   0.854E-02    0.634E-02
DAV:   6    -0.924097799912E+02    0.52318E-04   -0.38434E-04  6208   0.938E-02    0.242E-02
DAV:   7    -0.924097779624E+02    0.20288E-05   -0.64517E-05  6056   0.381E-02
  28 F= -.95334935E+02 E0= -.95332772E+02  d E =-.231781E-02
       N       E                     dE             d eps       ncg     rms          rms(c)
DAV:   1    -0.924099383767E+02   -0.15839E-03   -0.72686E-02  5816   0.698E-01    0.619E-02
DAV:   2    -0.924100498564E+02   -0.11148E-03   -0.19042E-03  7040   0.148E-01    0.397E-02
DAV:   3    -0.924100460311E+02    0.38253E-05   -0.14282E-04  6608   0.445E-02    0.282E-02
DAV:   4    -0.924100694922E+02   -0.23461E-04   -0.16669E-04  5456   0.616E-02    0.359E-02
DAV:   5    -0.924100481479E+02    0.21344E-04   -0.99884E-05  4800   0.401E-02    0.218E-02
DAV:   6    -0.924100443153E+02    0.38326E-05   -0.29933E-05  4688   0.220E-02
  29 F= -.95335141E+02 E0= -.95332969E+02  d E =-.205260E-03
       N       E                     dE             d eps       ncg     rms          rms(c)
DAV:   1    -0.924100700970E+02   -0.21949E-04   -0.76121E-03  5776   0.226E-01    0.204E-02
DAV:   2    -0.924100826696E+02   -0.12573E-04   -0.21239E-04  6840   0.505E-02    0.141E-02
DAV:   3    -0.924100818092E+02    0.86037E-06   -0.96144E-06  4408   0.126E-02
  30 F= -.95335198E+02 E0= -.95333029E+02  d E =-.262505E-03
       N       E                     dE             d eps       ncg     rms          rms(c)
DAV:   1    -0.924102395033E+02   -0.15683E-03   -0.18243E-02  5848   0.363E-01    0.262E-02
DAV:   2    -0.924103413967E+02   -0.10189E-03   -0.69144E-04  7608   0.103E-01    0.631E-02
DAV:   3    -0.924102791198E+02    0.62277E-04   -0.22478E-04  5872   0.641E-02    0.109E-02
DAV:   4    -0.924102790766E+02    0.43234E-07   -0.11530E-05  4024   0.163E-02
  31 F= -.95335385E+02 E0= -.95333218E+02  d E =-.187247E-03
       N       E                     dE             d eps       ncg     rms          rms(c)
DAV:   1    -0.924104373614E+02   -0.15824E-03   -0.16539E-01  5864   0.109E+00    0.601E-02
DAV:   2    -0.924108082067E+02   -0.37085E-03   -0.40551E-03  6784   0.226E-01    0.335E-02
DAV:   3    -0.924108279584E+02   -0.19752E-04   -0.26697E-04  7992   0.807E-02    0.262E-02
DAV:   4    -0.924108243081E+02    0.36503E-05   -0.11774E-04  5008   0.562E-02    0.199E-02
DAV:   5    -0.924108316645E+02   -0.73564E-05   -0.69190E-05  4896   0.319E-02
  32 F= -.95335908E+02 E0= -.95333731E+02  d E =-.710115E-03
       N       E                     dE             d eps       ncg     rms          rms(c)
DAV:   1    -0.924101911984E+02    0.63311E-03   -0.66047E-01  5864   0.218E+00    0.122E-01
DAV:   2    -0.924116822369E+02   -0.14910E-02   -0.16314E-02  6952   0.453E-01    0.679E-02
DAV:   3    -0.924117556761E+02   -0.73439E-04   -0.10310E-03  8272   0.161E-01    0.570E-02
DAV:   4    -0.924117358065E+02    0.19870E-04   -0.35849E-04  6192   0.972E-02    0.409E-02
DAV:   5    -0.924117406489E+02   -0.48424E-05   -0.10257E-04  5840   0.375E-02    0.315E-02
DAV:   6    -0.924117357785E+02    0.48704E-05   -0.12280E-04  4952   0.453E-02    0.224E-02
DAV:   7    -0.924117280491E+02    0.77293E-05   -0.36696E-05  4432   0.269E-02
  33 F= -.95336746E+02 E0= -.95334590E+02  d E =-.154851E-02
       N       E                     dE             d eps       ncg     rms          rms(c)
DAV:   1    -0.924064191114E+02    0.53167E-02   -0.26404E+00  5864   0.436E+00    0.242E-01
DAV:   2    -0.924126033722E+02   -0.61843E-02   -0.67334E-02  7000   0.908E-01    0.130E-01
DAV:   3    -0.924129288081E+02   -0.32544E-03   -0.42354E-03  8320   0.330E-01    0.105E-01
DAV:   4    -0.924129004847E+02    0.28323E-04   -0.20765E-03  7744   0.230E-01    0.969E-02
DAV:   5    -0.924129330427E+02   -0.32558E-04   -0.91255E-04  7104   0.866E-02    0.104E-01
DAV:   6    -0.924128025285E+02    0.13051E-03   -0.47311E-04  5864   0.765E-02    0.262E-02
DAV:   7    -0.924128055150E+02   -0.29865E-05   -0.83396E-05  6192   0.372E-02
  34 F= -.95337714E+02 E0= -.95335573E+02  d E =-.251609E-02
       N       E                     dE             d eps       ncg     rms          rms(c)
DAV:   1    -0.924128637219E+02   -0.61193E-04   -0.10067E-03  6360   0.898E-02    0.868E-03
DAV:   2    -0.924128662996E+02   -0.25776E-05   -0.28650E-05  4968   0.227E-02
  35 F= -.95337773E+02 E0= -.95335636E+02  d E =-.589178E-04
       N       E                     dE             d eps       ncg     rms          rms(c)
DAV:   1    -0.924130294915E+02   -0.16577E-03   -0.89694E-03  5944   0.255E-01    0.158E-02
DAV:   2    -0.924130550609E+02   -0.25569E-04   -0.27112E-04  7456   0.722E-02    0.122E-02
DAV:   3    -0.924130530725E+02    0.19884E-05   -0.54359E-05  4288   0.385E-02
  36 F= -.95337954E+02 E0= -.95335814E+02  d E =-.240109E-03
       N       E                     dE             d eps       ncg     rms          rms(c)
DAV:   1    -0.924133242979E+02   -0.26924E-03   -0.35733E-02  5872   0.507E-01    0.312E-02
DAV:   2    -0.924134135921E+02   -0.89294E-04   -0.92318E-04  6992   0.113E-01    0.329E-02
DAV:   3    -0.924134144923E+02   -0.90018E-06   -0.11793E-04  5856   0.399E-02    0.291E-02
DAV:   4    -0.924134071954E+02    0.72969E-05   -0.38943E-05  4624   0.251E-02
  37 F= -.95338297E+02 E0= -.95336160E+02  d E =-.583166E-03
       N       E                     dE             d eps       ncg     rms          rms(c)
DAV:   1    -0.924137256982E+02   -0.31121E-03   -0.14249E-01  5872   0.101E+00    0.572E-02
DAV:   2    -0.924140429768E+02   -0.31728E-03   -0.35025E-03  7032   0.210E-01    0.368E-02
DAV:   3    -0.924140709136E+02   -0.27937E-04   -0.30771E-04  7896   0.838E-02    0.381E-02
DAV:   4    -0.924140534889E+02    0.17425E-04   -0.15900E-04  5360   0.549E-02    0.274E-02
DAV:   5    -0.924140590576E+02   -0.55687E-05   -0.50809E-05  4944   0.257E-02
  38 F= -.95338927E+02 E0= -.95336805E+02  d E =-.121319E-02
       N       E                     dE             d eps       ncg     rms          rms(c)
DAV:   1    -0.924137702977E+02    0.28319E-03   -0.56871E-01  5872   0.202E+00    0.113E-01
DAV:   2    -0.924150514884E+02   -0.12812E-02   -0.14099E-02  7064   0.418E-01    0.635E-02
DAV:   3    -0.924151102832E+02   -0.58795E-04   -0.76451E-04  8280   0.131E-01    0.508E-02
DAV:   4    -0.924151300114E+02   -0.19728E-04   -0.42871E-04  6120   0.971E-02    0.545E-02
DAV:   5    -0.924151087878E+02    0.21224E-04   -0.18070E-04  5568   0.396E-02    0.361E-02
DAV:   6    -0.924150952558E+02    0.13532E-04   -0.99505E-05  4984   0.420E-02    0.142E-02
DAV:   7    -0.924150932046E+02    0.20512E-05   -0.19412E-05  4176   0.220E-02
  39 F= -.95339919E+02 E0= -.95337800E+02  d E =-.220506E-02
       N       E                     dE             d eps       ncg     rms          rms(c)
DAV:   1    -0.924106520590E+02    0.44432E-02   -0.22750E+00  5864   0.405E+00    0.229E-01
DAV:   2    -0.924159594850E+02   -0.53074E-02   -0.58170E-02  6952   0.844E-01    0.124E-01
DAV:   3    -0.924162153063E+02   -0.25582E-03   -0.36335E-03  8344   0.305E-01    0.950E-02
DAV:   4    -0.924162005358E+02    0.14771E-04   -0.17228E-03  7648   0.218E-01    0.814E-02
DAV:   5    -0.924162590026E+02   -0.58467E-04   -0.91657E-04  6840   0.999E-02    0.108E-01
DAV:   6    -0.924161270746E+02    0.13193E-03   -0.45566E-04  6096   0.588E-02    0.278E-02
DAV:   7    -0.924161290208E+02   -0.19462E-05   -0.72827E-05  6264   0.381E-02
  40 F= -.95340875E+02 E0= -.95338778E+02  d E =-.316152E-02
       N       E                     dE             d eps       ncg     rms          rms(c)
DAV:   1    -0.924160615447E+02    0.65530E-04   -0.38223E-02  5864   0.525E-01    0.304E-02
DAV:   2    -0.924161477250E+02   -0.86180E-04   -0.95198E-04  7168   0.110E-01    0.175E-02
DAV:   3    -0.924161522151E+02   -0.44901E-05   -0.61855E-05  5544   0.400E-02
  41 F= -.95340889E+02 E0= -.95338795E+02  d E =-.317498E-02
       N       E                     dE             d eps       ncg     rms          rms(c)
DAV:   1    -0.924161212778E+02    0.26447E-04   -0.81597E-03  5976   0.248E-01    0.172E-02
DAV:   2    -0.924161585330E+02   -0.37255E-04   -0.31636E-04  7168   0.770E-02    0.253E-02
DAV:   3    -0.924161441288E+02    0.14404E-04   -0.10142E-04  5080   0.495E-02    0.121E-02
DAV:   4    -0.924161434877E+02    0.64110E-06   -0.12805E-05  3856   0.143E-02
  42 F= -.95340885E+02 E0= -.95338790E+02  d E =-.317079E-02
       N       E                     dE             d eps       ncg     rms          rms(c)
DAV:   1    -0.924161417177E+02    0.24111E-05   -0.25053E-03  5880   0.136E-01    0.824E-03
DAV:   2    -0.924161481896E+02   -0.64719E-05   -0.69630E-05  6456   0.339E-02
  43 F= -.95340887E+02 E0= -.95338794E+02  d E =-.317297E-02
       N       E                     dE             d eps       ncg     rms          rms(c)
DAV:   1    -0.924161447959E+02   -0.30782E-05   -0.51857E-04  5736   0.637E-02    0.610E-03
DAV:   2    -0.924161484003E+02   -0.36044E-05   -0.23577E-05  4472   0.241E-02
  44 F= -.95340888E+02 E0= -.95338790E+02  d E =-.317434E-02
       N       E                     dE             d eps       ncg     rms          rms(c)
DAV:   1    -0.924161469918E+02   -0.21960E-05   -0.27482E-04  5504   0.465E-02    0.426E-03
DAV:   2    -0.924161494097E+02   -0.24178E-05   -0.15515E-05  3560   0.177E-02
  45 F= -.95340888E+02 E0= -.95338791E+02  d E =-.317451E-02
       N       E                     dE             d eps       ncg     rms          rms(c)
DAV:   1    -0.924161468742E+02    0.11761E-06   -0.68419E-05  4968   0.279E-02    0.283E-03
DAV:   2    -0.924161474730E+02   -0.59876E-06   -0.36925E-06  3016   0.106E-02
  46 F= -.95340887E+02 E0= -.95338792E+02  d E =-.317299E-02
       N       E                     dE             d eps       ncg     rms          rms(c)
DAV:   1    -0.924161476811E+02   -0.80687E-06   -0.27137E-05  4304   0.156E-02    0.195E-03
DAV:   2    -0.924161481574E+02   -0.47633E-06   -0.26327E-06  3000   0.810E-03
  47 F= -.95340887E+02 E0= -.95338792E+02  d E =-.317340E-02
       N       E                     dE             d eps       ncg     rms          rms(c)
DAV:   1    -0.924161349080E+02    0.12773E-04   -0.66930E-02  5864   0.689E-01    0.372E-02
DAV:   2    -0.924162803853E+02   -0.14548E-03   -0.15911E-03  6712   0.140E-01    0.207E-02
DAV:   3    -0.924162870192E+02   -0.66339E-05   -0.87151E-05  6760   0.436E-02
  48 F= -.95341012E+02 E0= -.95338927E+02  d E =-.125104E-03
       N       E                     dE             d eps       ncg     rms          rms(c)
DAV:   1    -0.924152268359E+02    0.10535E-02   -0.60139E-01  5864   0.207E+00    0.114E-01
DAV:   2    -0.924165710022E+02   -0.13442E-02   -0.14647E-02  6960   0.420E-01    0.731E-02
DAV:   3    -0.924167218209E+02   -0.15082E-03   -0.11719E-03  7976   0.143E-01    0.101E-01
DAV:   4    -0.924166077113E+02    0.11411E-03   -0.51291E-04  6176   0.863E-02    0.425E-02
DAV:   5    -0.924166099964E+02   -0.22850E-05   -0.80626E-05  5576   0.396E-02
  49 F= -.95341295E+02 E0= -.95339220E+02  d E =-.408098E-03
       N       E                     dE             d eps       ncg     rms          rms(c)
DAV:   1    -0.924111575525E+02    0.54502E-02   -0.24017E+00  5864   0.413E+00    0.226E-01
DAV:   2    -0.924167384856E+02   -0.55809E-02   -0.60828E-02  7032   0.850E-01    0.124E-01
DAV:   3    -0.924169277900E+02   -0.18930E-03   -0.27391E-03  8400   0.214E-01    0.823E-02
DAV:   4    -0.924169904916E+02   -0.62702E-04   -0.36808E-04  7344   0.106E-01    0.705E-02
DAV:   5    -0.924170316042E+02   -0.41113E-04   -0.64829E-04  6672   0.929E-02    0.822E-02
DAV:   6    -0.924169491718E+02    0.82432E-04   -0.33153E-04  6088   0.610E-02    0.219E-02
DAV:   7    -0.924169429503E+02    0.62215E-05   -0.39847E-05  5064   0.326E-02
  50 F= -.95341554E+02 E0= -.95339511E+02  d E =-.666597E-03
       N       E                     dE             d eps       ncg     rms          rms(c)
DAV:   1    -0.924171566147E+02   -0.20744E-03   -0.56188E-03  6000   0.187E-01    0.242E-02
DAV:   2    -0.924171672208E+02   -0.10606E-04   -0.22192E-04  6488   0.573E-02    0.179E-02
DAV:   3    -0.924171674630E+02   -0.24215E-06   -0.68921E-05  4824   0.438E-02
  51 F= -.95341771E+02 E0= -.95339735E+02  d E =-.217433E-03
       N       E                     dE             d eps       ncg     rms          rms(c)
DAV:   1    -0.924171990680E+02   -0.31847E-04   -0.20875E-03  6208   0.119E-01    0.233E-02
DAV:   2    -0.924172188055E+02   -0.19737E-04   -0.14825E-04  6856   0.395E-02    0.404E-02
DAV:   3    -0.924171997096E+02    0.19096E-04   -0.69053E-05  4984   0.263E-02    0.159E-02
DAV:   4    -0.924171995943E+02    0.11526E-06   -0.20850E-05  4216   0.226E-02
  52 F= -.95341799E+02 E0= -.95339758E+02  d E =-.245241E-03
       N       E                     dE             d eps       ncg     rms          rms(c)
DAV:   1    -0.924173704681E+02   -0.17076E-03   -0.37501E-03  5864   0.197E-01    0.129E-02
DAV:   2    -0.924173900862E+02   -0.19618E-04   -0.20599E-04  5912   0.554E-02    0.121E-02
DAV:   3    -0.924173890597E+02    0.10265E-05   -0.27361E-05  4352   0.305E-02
  53 F= -.95341981E+02 E0= -.95339936E+02  d E =-.181322E-03
       N       E                     dE             d eps       ncg     rms          rms(c)
DAV:   1    -0.924177629563E+02   -0.37287E-03   -0.33775E-02  5872   0.581E-01    0.402E-02
DAV:   2    -0.924179353199E+02   -0.17236E-03   -0.17404E-03  6488   0.156E-01    0.356E-02
DAV:   3    -0.924179395161E+02   -0.41962E-05   -0.36623E-04  7104   0.960E-02    0.368E-02
DAV:   4    -0.924179236850E+02    0.15831E-04   -0.71922E-05  5504   0.336E-02    0.177E-02
DAV:   5    -0.924179226850E+02    0.10000E-05   -0.25006E-05  4304   0.236E-02
  54 F= -.95342490E+02 E0= -.95340446E+02  d E =-.690827E-03
       N       E                     dE             d eps       ncg     rms          rms(c)
DAV:   1    -0.924181742218E+02   -0.25054E-03   -0.13446E-01  5848   0.116E+00    0.757E-02
DAV:   2    -0.924188113748E+02   -0.63715E-03   -0.66650E-03  6456   0.293E-01    0.504E-02
DAV:   3    -0.924188789439E+02   -0.67569E-04   -0.11668E-03  7352   0.176E-01    0.662E-02
DAV:   4    -0.924188118481E+02    0.67096E-04   -0.31064E-04  6448   0.735E-02    0.346E-02
DAV:   5    -0.924188093989E+02    0.24491E-05   -0.84078E-05  5384   0.400E-02
  55 F= -.95343329E+02 E0= -.95341287E+02  d E =-.153009E-02
       N       E                     dE             d eps       ncg     rms          rms(c)
DAV:   1    -0.924173243143E+02    0.14875E-02   -0.53803E-01  5856   0.233E+00    0.152E-01
DAV:   2    -0.924198564109E+02   -0.25321E-02   -0.26532E-02  6552   0.581E-01    0.100E-01
DAV:   3    -0.924201480122E+02   -0.29160E-03   -0.45281E-03  7368   0.357E-01    0.135E-01
DAV:   4    -0.924198664718E+02    0.28154E-03   -0.12683E-03  7272   0.146E-01    0.677E-02
DAV:   5    -0.924198617027E+02    0.47692E-05   -0.34391E-04  6184   0.801E-02    0.448E-02
DAV:   6    -0.924198456482E+02    0.16054E-04   -0.19124E-04  6608   0.623E-02    0.184E-02
DAV:   7    -0.924198417180E+02    0.39302E-05   -0.30475E-05  5176   0.299E-02
  56 F= -.95344270E+02 E0= -.95342224E+02  d E =-.247114E-02
       N       E                     dE             d eps       ncg     rms          rms(c)
DAV:   1    -0.924194869534E+02    0.35869E-03   -0.10543E-01  5856   0.103E+00    0.689E-02
DAV:   2    -0.924199863531E+02   -0.49940E-03   -0.52311E-03  6672   0.261E-01    0.468E-02
DAV:   3    -0.924200475366E+02   -0.61183E-04   -0.88653E-04  7392   0.152E-01    0.628E-02
DAV:   4    -0.924199874879E+02    0.60049E-04   -0.25540E-04  5912   0.663E-02    0.291E-02
DAV:   5    -0.924199891886E+02   -0.17007E-05   -0.69244E-05  5024   0.388E-02
  57 F= -.95344379E+02 E0= -.95342335E+02  d E =-.257979E-02
       N       E                     dE             d eps       ncg     rms          rms(c)
DAV:   1    -0.924196261659E+02    0.36132E-03   -0.40814E-02  5704   0.449E-01    0.670E-02
DAV:   2    -0.924196392247E+02   -0.13059E-04   -0.11563E-03  7024   0.102E-01    0.446E-02
DAV:   3    -0.924196324817E+02    0.67431E-05   -0.15908E-04  6520   0.528E-02    0.364E-02
DAV:   4    -0.924196316014E+02    0.88023E-06   -0.96894E-05  6184   0.461E-02
  58 F= -.95344059E+02 E0= -.95342028E+02  d E =0.320217E-03
       N       E                     dE             d eps       ncg     rms          rms(c)
DAV:   1    -0.924200467794E+02   -0.41430E-03   -0.20075E-02  5728   0.315E-01    0.523E-02
DAV:   2    -0.924201919730E+02   -0.14519E-03   -0.10549E-03  7976   0.108E-01    0.101E-01
DAV:   3    -0.924200566324E+02    0.13534E-03   -0.53752E-04  6472   0.766E-02    0.320E-02
DAV:   4    -0.924200462483E+02    0.10384E-04   -0.85110E-05  5632   0.426E-02    0.181E-02
DAV:   5    -0.924200443043E+02    0.19441E-05   -0.39760E-05  4448   0.347E-02
  59 F= -.95344445E+02 E0= -.95342399E+02  d E =-.663254E-04
       N       E                     dE             d eps       ncg     rms          rms(c)
DAV:   1    -0.924201170750E+02   -0.70827E-04   -0.21971E-02  5880   0.476E-01    0.328E-02
DAV:   2    -0.924202122505E+02   -0.95175E-04   -0.10254E-03  6672   0.116E-01    0.244E-02
DAV:   3    -0.924202156041E+02   -0.33536E-05   -0.92193E-05  5952   0.430E-02
  60 F= -.95344665E+02 E0= -.95342628E+02  d E =-.220093E-03
       N       E                     dE             d eps       ncg     rms          rms(c)
DAV:   1    -0.924197649762E+02    0.44727E-03   -0.18176E-01  5864   0.136E+00    0.991E-02
DAV:   2    -0.924205378871E+02   -0.77291E-03   -0.81849E-03  6608   0.325E-01    0.717E-02
DAV:   3    -0.924206464857E+02   -0.10860E-03   -0.10509E-03  7768   0.127E-01    0.101E-01
DAV:   4    -0.924205464232E+02    0.10006E-03   -0.43137E-04  5944   0.641E-02    0.353E-02
DAV:   5    -0.924205488426E+02   -0.24195E-05   -0.25624E-04  5280   0.882E-02    0.212E-02
DAV:   6    -0.924205372816E+02    0.11561E-04   -0.11540E-04  4736   0.497E-02    0.130E-02
DAV:   7    -0.924205336049E+02    0.36767E-05   -0.13728E-05  4160   0.203E-02
  61 F= -.95345124E+02 E0= -.95343135E+02  d E =-.679139E-03
       N       E                     dE             d eps       ncg     rms          rms(c)
DAV:   1    -0.924174198520E+02    0.31174E-02   -0.72496E-01  5864   0.273E+00    0.184E-01
DAV:   2    -0.924204239888E+02   -0.30041E-02   -0.32358E-02  6576   0.650E-01    0.102E-01
DAV:   3    -0.924207757312E+02   -0.35174E-03   -0.41476E-03  7528   0.336E-01    0.116E-01
DAV:   4    -0.924205331771E+02    0.24255E-03   -0.17868E-03  7160   0.216E-01    0.782E-02
DAV:   5    -0.924205584307E+02   -0.25254E-04   -0.57007E-04  7464   0.858E-02    0.686E-02
DAV:   6    -0.924205039603E+02    0.54470E-04   -0.30583E-04  6432   0.772E-02    0.239E-02
DAV:   7    -0.924204967091E+02    0.72512E-05   -0.45675E-05  5680   0.321E-02
  62 F= -.95345375E+02 E0= -.95343469E+02  d E =-.929587E-03
       N       E                     dE             d eps       ncg     rms          rms(c)
DAV:   1    -0.924203027221E+02    0.20124E-03   -0.45199E-02  5736   0.559E-01    0.556E-02
DAV:   2    -0.924203785722E+02   -0.75850E-04   -0.13758E-03  6768   0.123E-01    0.354E-02
DAV:   3    -0.924203783375E+02    0.23475E-06   -0.14443E-04  6576   0.572E-02    0.266E-02
DAV:   4    -0.924203847699E+02   -0.64324E-05   -0.13109E-04  5064   0.588E-02    0.275E-02
DAV:   5    -0.924203808845E+02    0.38853E-05   -0.69909E-05  4832   0.288E-02
  63 F= -.95345304E+02 E0= -.95343404E+02  d E =0.708828E-04
       N       E                     dE             d eps       ncg     rms          rms(c)
DAV:   1    -0.924205305128E+02   -0.14574E-03   -0.15753E-02  5736   0.329E-01    0.318E-02
DAV:   2    -0.924205649202E+02   -0.34407E-04   -0.51074E-04  6888   0.770E-02    0.283E-02
DAV:   3    -0.924205682472E+02   -0.33270E-05   -0.89061E-05  5704   0.351E-02
  64 F= -.95345465E+02 E0= -.95343578E+02  d E =-.899343E-04
       N       E                     dE             d eps       ncg     rms          rms(c)
DAV:   1    -0.924206342178E+02   -0.69298E-04   -0.44868E-03  5848   0.181E-01    0.194E-02
DAV:   2    -0.924206598138E+02   -0.25596E-04   -0.20529E-04  7488   0.647E-02    0.277E-02
DAV:   3    -0.924206469540E+02    0.12860E-04   -0.78668E-05  4976   0.412E-02    0.140E-02
DAV:   4    -0.924206468553E+02    0.98764E-07   -0.10835E-05  4128   0.135E-02
  65 F= -.95345547E+02 E0= -.95343651E+02  d E =-.822457E-04
       N       E                     dE             d eps       ncg     rms          rms(c)
DAV:   1    -0.924207830812E+02   -0.13613E-03   -0.40705E-02  5824   0.537E-01    0.469E-02
DAV:   2    -0.924208918443E+02   -0.10876E-03   -0.11978E-03  7016   0.131E-01    0.264E-02
DAV:   3    -0.924209064534E+02   -0.14609E-04   -0.26132E-04  7208   0.874E-02    0.277E-02
DAV:   4    -0.924208917607E+02    0.14693E-04   -0.10474E-04  4584   0.506E-02    0.205E-02
DAV:   5    -0.924208939347E+02   -0.21740E-05   -0.39044E-05  4832   0.201E-02
  66 F= -.95345805E+02 E0= -.95343917E+02  d E =-.340379E-03
