       N       E                     dE             d eps       ncg     rms          rms(c)
DAV:   1     0.513316187800E+03    0.51332E+03   -0.14466E+04  2000   0.914E+02
DAV:   2     0.548010056328E+02   -0.45852E+03   -0.44216E+03  2336   0.266E+02
DAV:   3    -0.705085204886E+02   -0.12531E+03   -0.12143E+03  3776   0.144E+02
DAV:   4    -0.876931184586E+02   -0.17185E+02   -0.15398E+02  3400   0.637E+01
DAV:   5    -0.891528648574E+02   -0.14597E+01   -0.14197E+01  3432   0.172E+01    0.349E+01
RMM:   6    -0.924398214035E+02   -0.32870E+01   -0.35098E+01  2361   0.366E+01    0.161E+01
RMM:   7    -0.916021967600E+02    0.83762E+00   -0.26211E+01  2552   0.291E+01    0.148E+01
RMM:   8    -0.818296270069E+02    0.97726E+01   -0.13306E+01  2697   0.176E+01    0.826E+00
RMM:   9    -0.800988734313E+02    0.17308E+01   -0.18695E+00  2300   0.101E+01    0.520E+00
RMM:  10    -0.800507739208E+02    0.48100E-01   -0.32485E+00  2754   0.726E+00    0.336E+00
RMM:  11    -0.799381245428E+02    0.11265E+00   -0.58384E-01  2618   0.421E+00    0.163E+00
RMM:  12    -0.799301953169E+02    0.79292E-02   -0.13205E-01  2518   0.218E+00    0.127E+00
RMM:  13    -0.799177189977E+02    0.12476E-01   -0.82930E-02  2589   0.149E+00    0.892E-01
RMM:  14    -0.799029252751E+02    0.14794E-01   -0.29928E-02  2750   0.851E-01    0.292E-01
RMM:  15    -0.799002737239E+02    0.26516E-02   -0.19364E-02  2664   0.688E-01    0.137E-01
RMM:  16    -0.799006897267E+02   -0.41600E-03   -0.35848E-03  2842   0.229E-01    0.631E-02
RMM:  17    -0.799004794292E+02    0.21030E-03   -0.25152E-03  2632   0.152E-01    0.658E-02
RMM:  18    -0.799009478910E+02   -0.46846E-03   -0.10231E-03  2643   0.104E-01    0.505E-02
RMM:  19    -0.799018162924E+02   -0.86840E-03   -0.42494E-04  2450   0.969E-02    0.420E-02
RMM:  20    -0.799023871166E+02   -0.57082E-03   -0.43541E-04  2397   0.897E-02    0.247E-02
RMM:  21    -0.799028244801E+02   -0.43736E-03   -0.85144E-05  1826   0.470E-02    0.183E-02
RMM:  22    -0.799032863257E+02   -0.46185E-03   -0.10736E-04  1826   0.398E-02    0.899E-03
RMM:  23    -0.799034331091E+02   -0.14678E-03   -0.19513E-05  1388   0.314E-02    0.797E-03
RMM:  24    -0.799034791003E+02   -0.45991E-04   -0.11315E-05  1300   0.181E-02    0.584E-03
RMM:  25    -0.799035152017E+02   -0.36101E-04   -0.84807E-06  1297   0.188E-02    0.302E-03
RMM:  26    -0.799035209224E+02   -0.57207E-05   -0.36803E-06  1220   0.157E-02
   1 F= -.83042527E+02 E0= -.83044660E+02  d E =-.830425E+02
       N       E                     dE             d eps       ncg     rms          rms(c)
DAV:   1     0.732004435516E+02    0.15310E+03   -0.15993E+03  2096   0.188E+02    0.743E+01
RMM:   2     0.526503164003E+02   -0.20550E+02   -0.26588E+02  2818   0.841E+01    0.897E+01
RMM:   3     0.136435109816E+02   -0.39007E+02   -0.13386E+02  3046   0.464E+01    0.206E+02
RMM:   4     0.561709610706E+02    0.42527E+02   -0.61429E+01  2552   0.386E+01    0.684E+01
RMM:   5     0.589269972545E+02    0.27560E+01   -0.10404E+01  2366   0.233E+01    0.556E+01
RMM:   6     0.583562825765E+02   -0.57071E+00   -0.46836E+00  3064   0.727E+00    0.474E+01
RMM:   7     0.589769848679E+02    0.62070E+00   -0.31705E+00  2890   0.604E+00    0.458E+01
RMM:   8     0.590348539883E+02    0.57869E-01   -0.88725E-01  3017   0.282E+00    0.406E+01
RMM:   9     0.593881330731E+02    0.35328E+00   -0.40248E+00  2983   0.918E+00    0.158E+01
RMM:  10     0.595220113296E+02    0.13388E+00   -0.62595E-01  2442   0.395E+00    0.863E+00
RMM:  11     0.595497259057E+02    0.27715E-01   -0.36878E-01  2858   0.201E+00    0.863E+00
RMM:  12     0.595580173052E+02    0.82914E-02   -0.14493E-01  2947   0.976E-01    0.642E+00
RMM:  13     0.595582682607E+02    0.25096E-03   -0.87935E-02  2925   0.808E-01    0.476E+00
RMM:  14     0.595568188085E+02   -0.14495E-02   -0.59990E-02  3006   0.622E-01    0.329E+00
RMM:  15     0.595589231054E+02    0.21043E-02   -0.63412E-02  2868   0.806E-01    0.821E-01
RMM:  16     0.595543002120E+02   -0.46229E-02   -0.43273E-02  3003   0.359E-01    0.906E-01
RMM:  17     0.595497888715E+02   -0.45113E-02   -0.42520E-02  2993   0.311E-01    0.438E-01
RMM:  18     0.595459365689E+02   -0.38523E-02   -0.39304E-02  2924   0.287E-01    0.129E-01
RMM:  19     0.595423457660E+02   -0.35908E-02   -0.38409E-02  2855   0.233E-01    0.155E-01
RMM:  20     0.595387634331E+02   -0.35823E-02   -0.35391E-02  2878   0.223E-01    0.295E-01
RMM:  21     0.595345007263E+02   -0.42627E-02   -0.38564E-02  2692   0.201E-01    0.211E-01
RMM:  22     0.595308710537E+02   -0.36297E-02   -0.36631E-02  2682   0.196E-01    0.114E-01
RMM:  23     0.595270306598E+02   -0.38404E-02   -0.35303E-02  2328   0.174E-01    0.947E-02
RMM:  24     0.595230240005E+02   -0.40067E-02   -0.33910E-02  2130   0.174E-01    0.137E-01
RMM:  25     0.595220392603E+02   -0.98474E-03   -0.29312E-02  2881   0.179E-01    0.114E-01
RMM:  26     0.595204219403E+02   -0.16173E-02   -0.25690E-02  3159   0.191E-01    0.479E-02
RMM:  27     0.595181688808E+02   -0.22531E-02   -0.22499E-02  2380   0.147E-01    0.475E-02
RMM:  28     0.595159762218E+02   -0.21927E-02   -0.21551E-02  2088   0.137E-01    0.671E-02
RMM:  29     0.595133103265E+02   -0.26659E-02   -0.22673E-02  1957   0.122E-01    0.128E-01
RMM:  30     0.595114824224E+02   -0.18279E-02   -0.22032E-02  1964   0.121E-01    0.123E-01
RMM:  31     0.595091913016E+02   -0.22911E-02   -0.21912E-02  1892   0.116E-01    0.153E-01
RMM:  32     0.595069672070E+02   -0.22241E-02   -0.21722E-02  1834   0.113E-01    0.182E-01
RMM:  33     0.595045754419E+02   -0.23918E-02   -0.22504E-02  1824   0.110E-01    0.218E-01
RMM:  34     0.595020111131E+02   -0.25643E-02   -0.21338E-02  1773   0.107E-01    0.264E-01
RMM:  35     0.595000123759E+02   -0.19987E-02   -0.19294E-02  1754   0.975E-02    0.299E-01
RMM:  36     0.594983395792E+02   -0.16728E-02   -0.16588E-02  1734   0.951E-02    0.327E-01
RMM:  37     0.594961836904E+02   -0.21559E-02   -0.15258E-02  1727   0.942E-02    0.371E-01
RMM:  38     0.594939172844E+02   -0.22664E-02   -0.13638E-02  1708   0.918E-02    0.421E-01
RMM:  39     0.594934878935E+02   -0.42939E-03   -0.12482E-02  1684   0.946E-02    0.425E-01
RMM:  40     0.594916719381E+02   -0.18160E-02   -0.11357E-02  1643   0.805E-02    0.466E-01
RMM:  41     0.594905948886E+02   -0.10770E-02   -0.10365E-02  1613   0.780E-02    0.490E-01
RMM:  42     0.594906633645E+02    0.68476E-04   -0.92639E-03  1618   0.721E-02    0.491E-01
RMM:  43     0.594899787041E+02   -0.68466E-03   -0.83460E-03  1604   0.705E-02    0.509E-01
RMM:  44     0.594892874285E+02   -0.69128E-03   -0.74115E-03  1389   0.627E-02    0.529E-01
RMM:  45     0.594891647404E+02   -0.12269E-03   -0.66493E-03  1607   0.623E-02    0.538E-01
RMM:  46     0.594885044472E+02   -0.66029E-03   -0.58443E-03  1595   0.628E-02    0.559E-01
RMM:  47     0.594876912350E+02   -0.81321E-03   -0.51772E-03  1474   0.536E-02    0.585E-01
RMM:  48     0.594872449501E+02   -0.44628E-03   -0.45317E-03  1465   0.500E-02    0.601E-01
RMM:  49     0.594865415384E+02   -0.70341E-03   -0.39398E-03  1416   0.466E-02    0.622E-01
RMM:  50     0.594864206337E+02   -0.12090E-03   -0.33942E-03  1385   0.434E-02    0.633E-01
RMM:  51     0.594861557764E+02   -0.26486E-03   -0.28023E-03  1200   0.392E-02    0.649E-01
RMM:  52     0.594870834061E+02    0.92763E-03   -0.22441E-03  1623   0.437E-02    0.636E-01
RMM:  53     0.594880899490E+02    0.10065E-02   -0.18816E-03  1756   0.481E-02    0.610E-01
RMM:  54     0.594905319961E+02    0.24420E-02   -0.14943E-03  2485   0.654E-02    0.561E-01
RMM:  55     0.594911047130E+02    0.57272E-03   -0.11331E-03  1913   0.521E-02    0.540E-01
RMM:  56     0.594920095212E+02    0.90481E-03   -0.74066E-04  1890   0.523E-02    0.501E-01
RMM:  57     0.594919819588E+02   -0.27562E-04   -0.59288E-04  1669   0.502E-02    0.490E-01
RMM:  58     0.594932376294E+02    0.12557E-02   -0.57708E-04  2401   0.510E-02    0.420E-01
RMM:  59     0.594931366849E+02   -0.10094E-03   -0.43117E-04  1733   0.448E-02    0.425E-01
RMM:  60     0.594932083590E+02    0.71674E-04   -0.33523E-04  1607   0.315E-02    0.422E-01
RMM:  61     0.594934775878E+02    0.26923E-03   -0.31857E-04  1599   0.337E-02    0.402E-01
RMM:  62     0.594933680584E+02   -0.10953E-03   -0.25366E-04  1557   0.318E-02    0.389E-01
RMM:  63     0.594939628050E+02    0.59475E-03   -0.26604E-04  1766   0.326E-02    0.341E-01
RMM:  64     0.594940766433E+02    0.11384E-03   -0.21412E-04  1618   0.418E-02    0.327E-01
RMM:  65     0.594943455170E+02    0.26887E-03   -0.19745E-04  1608   0.320E-02    0.311E-01
RMM:  66     0.594945511187E+02    0.20560E-03   -0.17251E-04  1616   0.389E-02    0.290E-01
RMM:  67     0.594949242629E+02    0.37314E-03   -0.19627E-04  1919   0.374E-02    0.266E-01
RMM:  68     0.594950064667E+02    0.82204E-04   -0.13931E-04  1628   0.350E-02    0.256E-01
RMM:  69     0.594951961613E+02    0.18969E-03   -0.13625E-04  1597   0.287E-02    0.240E-01
RMM:  70     0.594956313404E+02    0.43518E-03   -0.19910E-04  2005   0.401E-02    0.190E-01
RMM:  71     0.594957960719E+02    0.16473E-03   -0.18014E-04  1862   0.398E-02    0.153E-01
RMM:  72     0.594958684016E+02    0.72330E-04   -0.15004E-04  1733   0.356E-02    0.138E-01
RMM:  73     0.594959389404E+02    0.70539E-04   -0.15361E-04  1700   0.363E-02    0.997E-02
RMM:  74     0.594959533970E+02    0.14457E-04   -0.13208E-04  1577   0.353E-02    0.728E-02
RMM:  75     0.594959588860E+02    0.54890E-05   -0.12454E-04  1514   0.315E-02    0.619E-02
RMM:  76     0.594959627008E+02    0.38148E-05   -0.11965E-04  1484   0.302E-02    0.495E-02
RMM:  77     0.594959651685E+02    0.24677E-05   -0.12770E-04  1476   0.290E-02    0.363E-02
RMM:  78     0.594959574150E+02   -0.77535E-05   -0.11699E-04  1458   0.285E-02    0.283E-02
RMM:  79     0.594959484971E+02   -0.89179E-05   -0.11499E-04  1437   0.248E-02    0.234E-02
RMM:  80     0.594959390016E+02   -0.94955E-05   -0.11088E-04  1414   0.248E-02    0.174E-02
RMM:  81     0.594959282584E+02   -0.10743E-04   -0.11191E-04  1406   0.214E-02    0.157E-02
RMM:  82     0.594959177858E+02   -0.10473E-04   -0.10808E-04  1357   0.201E-02    0.140E-02
RMM:  83     0.594959069624E+02   -0.10823E-04   -0.11081E-04  1312   0.171E-02    0.142E-02
RMM:  84     0.594958964441E+02   -0.10518E-04   -0.10911E-04  1277   0.161E-02    0.126E-02
RMM:  85     0.594958853788E+02   -0.11065E-04   -0.11231E-04  1234   0.145E-02    0.135E-02
RMM:  86     0.594958744146E+02   -0.10964E-04   -0.11131E-04  1150   0.130E-02    0.137E-02
RMM:  87     0.594958633362E+02   -0.11078E-04   -0.11478E-04  1128   0.122E-02    0.124E-02
RMM:  88     0.594958520544E+02   -0.11282E-04   -0.11477E-04  1128   0.122E-02    0.112E-02
RMM:  89     0.594958404154E+02   -0.11639E-04   -0.11792E-04  1112   0.114E-02    0.107E-02
RMM:  90     0.594958287590E+02   -0.11656E-04   -0.11770E-04  1073   0.114E-02    0.108E-02
RMM:  91     0.594958175066E+02   -0.11252E-04   -0.11403E-04   976   0.982E-03    0.109E-02
RMM:  92     0.594958058438E+02   -0.11663E-04   -0.11683E-04  1095   0.100E-02    0.754E-03
RMM:  93     0.594957941814E+02   -0.11662E-04   -0.11775E-04  1107   0.104E-02    0.737E-03
RMM:  94     0.594957822770E+02   -0.11904E-04   -0.11997E-04   954   0.900E-03    0.767E-03
RMM:  95     0.594957700941E+02   -0.12183E-04   -0.12258E-04   956   0.894E-03    0.838E-03
RMM:  96     0.594957577506E+02   -0.12344E-04   -0.12420E-04   941   0.853E-03    0.890E-03
RMM:  97     0.594957451549E+02   -0.12596E-04   -0.12724E-04   874   0.824E-03    0.899E-03
RMM:  98     0.594957324589E+02   -0.12696E-04   -0.12816E-04   808   0.762E-03    0.894E-03
RMM:  99     0.594957194079E+02   -0.13051E-04   -0.13179E-04   797   0.743E-03    0.859E-03
RMM: 100     0.594957061746E+02   -0.13233E-04   -0.13319E-04   831   0.729E-03
   2 F= 0.56291772E+02 E0= 0.56298686E+02  d E =0.139334E+03
       N       E                     dE             d eps       ncg     rms          rms(c)
DAV:   1    -0.798734845946E+02   -0.13937E+03   -0.12312E+03  2656   0.131E+02    0.107E+02
RMM:   2    -0.788575650925E+02    0.10159E+01   -0.15139E+02  3159   0.474E+01    0.702E+01
RMM:   3    -0.112602963819E+03   -0.33745E+02   -0.12944E+02  2849   0.545E+01    0.246E+01
RMM:   4    -0.871440802351E+02    0.25459E+02   -0.64513E+01  2715   0.416E+01    0.106E+01
RMM:   5    -0.826244017727E+02    0.45197E+01   -0.22130E+01  2799   0.166E+01    0.658E+00
RMM:   6    -0.810505569885E+02    0.15738E+01   -0.11709E+01  2693   0.144E+01    0.361E+00
RMM:   7    -0.811461988684E+02   -0.95642E-01   -0.25595E+00  2535   0.718E+00    0.264E+00
RMM:   8    -0.810766808188E+02    0.69518E-01   -0.96063E-01  2822   0.329E+00    0.235E+00
RMM:   9    -0.809424364812E+02    0.13424E+00   -0.47473E-01  2797   0.248E+00    0.151E+00
RMM:  10    -0.810647074774E+02   -0.12227E+00   -0.37444E-01  2724   0.188E+00    0.207E+00
RMM:  11    -0.809366400156E+02    0.12807E+00   -0.36031E-01  2718   0.235E+00    0.556E-01
RMM:  12    -0.809432012678E+02   -0.65613E-02   -0.10598E-01  2853   0.107E+00    0.278E-01
RMM:  13    -0.809466702682E+02   -0.34690E-02   -0.15689E-02  2704   0.537E-01    0.372E-01
RMM:  14    -0.809448319624E+02    0.18383E-02   -0.23068E-02  2770   0.506E-01    0.103E-01
RMM:  15    -0.809453109565E+02   -0.47899E-03   -0.41681E-03  2845   0.218E-01    0.147E-01
RMM:  16    -0.809451896841E+02    0.12127E-03   -0.18505E-03  2728   0.138E-01    0.115E-01
RMM:  17    -0.809463470888E+02   -0.11574E-02   -0.63899E-03  2883   0.271E-01    0.140E-01
RMM:  18    -0.809463093356E+02    0.37753E-04   -0.11517E-03  2565   0.131E-01    0.328E-02
RMM:  19    -0.809466844131E+02   -0.37508E-03   -0.56125E-04  2259   0.796E-02    0.506E-02
RMM:  20    -0.809473333406E+02   -0.64893E-03   -0.11162E-03  2651   0.117E-01    0.109E-01
RMM:  21    -0.809471733426E+02    0.16000E-03   -0.45706E-04  2329   0.971E-02    0.185E-02
RMM:  22    -0.809472411593E+02   -0.67817E-04   -0.99082E-05  1854   0.429E-02    0.172E-02
RMM:  23    -0.809473111148E+02   -0.69956E-04    0.35266E-06  1556   0.386E-02    0.194E-02
RMM:  24    -0.809473244368E+02   -0.13322E-04    0.56435E-05  1352   0.248E-02    0.919E-03
RMM:  25    -0.809473276866E+02   -0.32499E-05    0.49003E-05  1329   0.159E-02
   3 F= -.84088901E+02 E0= -.84090026E+02  d E =-.104637E+01
       N       E                     dE             d eps       ncg     rms          rms(c)
DAV:   1    -0.814071034529E+02   -0.45978E+00   -0.23972E+00  2312   0.606E+00    0.247E+00
RMM:   2    -0.816911467981E+02   -0.28404E+00   -0.55700E-01  2691   0.343E+00    0.336E+00
RMM:   3    -0.813898620807E+02    0.30128E+00   -0.18833E-01  2374   0.249E+00    0.151E+00
RMM:   4    -0.814006354239E+02   -0.10773E-01   -0.14066E-01  2535   0.170E+00    0.115E+00
RMM:   5    -0.813761330411E+02    0.24502E-01   -0.25440E-02  2260   0.119E+00    0.444E-01
RMM:   6    -0.813743723661E+02    0.17607E-02   -0.12621E-02  2752   0.383E-01    0.941E-02
RMM:   7    -0.813745902834E+02   -0.21792E-03   -0.17870E-03  2743   0.171E-01    0.516E-02
RMM:   8    -0.813746518129E+02   -0.61529E-04   -0.51492E-04  2459   0.844E-02    0.193E-02
RMM:   9    -0.813746805592E+02   -0.28746E-04   -0.15402E-04  1937   0.603E-02    0.936E-03
RMM:  10    -0.813747052159E+02   -0.24657E-04   -0.36063E-05  1520   0.327E-02    0.539E-03
RMM:  11    -0.813747262372E+02   -0.21021E-04   -0.91637E-06  1241   0.251E-02    0.339E-03
RMM:  12    -0.813747475833E+02   -0.21346E-04   -0.81333E-06  1258   0.198E-02    0.362E-03
RMM:  13    -0.813747732071E+02   -0.25624E-04   -0.10528E-05  1299   0.180E-02    0.406E-03
RMM:  14    -0.813747864851E+02   -0.13278E-04   -0.70629E-06  1263   0.187E-02    0.320E-03
RMM:  15    -0.813747923918E+02   -0.59067E-05   -0.42804E-06  1236   0.133E-02
   4 F= -.84517889E+02 E0= -.84519029E+02  d E =-.147536E+01
       N       E                     dE             d eps       ncg     rms          rms(c)
DAV:   1    -0.819302804581E+02   -0.55549E+00   -0.11616E+01  2008   0.134E+01    0.463E+00
RMM:   2    -0.828059500256E+02   -0.87567E+00   -0.22291E+00  2676   0.697E+00    0.606E+00
RMM:   3    -0.818693439170E+02    0.93661E+00   -0.62508E-01  2419   0.441E+00    0.281E+00
RMM:   4    -0.818927286508E+02   -0.23385E-01   -0.45539E-01  2482   0.318E+00    0.198E+00
RMM:   5    -0.818125505315E+02    0.80178E-01   -0.11682E-01  2259   0.259E+00    0.690E-01
RMM:   6    -0.818070984538E+02    0.54521E-02   -0.42692E-02  2702   0.848E-01    0.192E-01
RMM:   7    -0.818074008527E+02   -0.30240E-03   -0.64252E-03  2747   0.351E-01    0.970E-02
RMM:   8    -0.818075708863E+02   -0.17003E-03   -0.20497E-03  2750   0.184E-01    0.377E-02
RMM:   9    -0.818076449642E+02   -0.74078E-04   -0.63610E-04  2516   0.111E-01    0.149E-02
RMM:  10    -0.818077018906E+02   -0.56926E-04   -0.16426E-04  2139   0.484E-02    0.125E-02
RMM:  11    -0.818077540713E+02   -0.52181E-04   -0.29787E-05  1484   0.368E-02    0.883E-03
RMM:  12    -0.818078452216E+02   -0.91150E-04   -0.47079E-05  1542   0.295E-02    0.566E-03
RMM:  13    -0.818078869644E+02   -0.41743E-04   -0.16131E-05  1320   0.301E-02    0.379E-03
RMM:  14    -0.818079331789E+02   -0.46214E-04   -0.16424E-05  1344   0.194E-02    0.658E-03
RMM:  15    -0.818079746016E+02   -0.41423E-04   -0.18358E-05  1374   0.218E-02    0.309E-03
RMM:  16    -0.818079836822E+02   -0.90806E-05   -0.77800E-06  1279   0.183E-02
   5 F= -.84954350E+02 E0= -.84955398E+02  d E =-.191182E+01
       N       E                     dE             d eps       ncg     rms          rms(c)
DAV:   1    -0.644142147020E+02    0.17394E+02   -0.82291E+02  2184   0.113E+02    0.108E+01
RMM:   2    -0.629464155227E+02    0.14678E+01   -0.36516E+01  2666   0.354E+01    0.821E+00
RMM:   3    -0.636865174662E+02   -0.74010E+00   -0.10479E+01  2851   0.122E+01    0.735E+00
RMM:   4    -0.636648358641E+02    0.21682E-01   -0.19127E+00  2706   0.685E+00    0.863E+00
RMM:   5    -0.635565875357E+02    0.10825E+00   -0.42393E+00  2853   0.663E+00    0.658E+00
RMM:   6    -0.633862752696E+02    0.17031E+00   -0.81785E-01  2832   0.355E+00    0.546E+00
RMM:   7    -0.630446670819E+02    0.34161E+00   -0.44067E-01  2656   0.319E+00    0.410E+00
RMM:   8    -0.626801125929E+02    0.36455E+00   -0.72068E-01  2810   0.272E+00    0.104E+00
RMM:   9    -0.626806096586E+02   -0.49707E-03   -0.14066E-01  2979   0.124E+00    0.392E-01
RMM:  10    -0.626817388388E+02   -0.11292E-02   -0.21310E-02  2921   0.537E-01    0.229E-01
RMM:  11    -0.626828126925E+02   -0.10739E-02   -0.65436E-03  2683   0.367E-01    0.190E-01
RMM:  12    -0.626830248814E+02   -0.21219E-03   -0.49755E-03  3034   0.253E-01    0.119E-01
RMM:  13    -0.626836312225E+02   -0.60634E-03   -0.23895E-03  3136   0.147E-01    0.915E-02
RMM:  14    -0.626858361361E+02   -0.22049E-02   -0.29852E-03  2754   0.177E-01    0.221E-01
RMM:  15    -0.626855629380E+02    0.27320E-03   -0.65137E-04  2445   0.978E-02    0.844E-02
RMM:  16    -0.626856268029E+02   -0.63865E-04   -0.32878E-04  2336   0.715E-02    0.432E-02
RMM:  17    -0.626858581063E+02   -0.23130E-03   -0.46476E-04  2578   0.706E-02    0.225E-02
RMM:  18    -0.626859444817E+02   -0.86375E-04   -0.13449E-04  2034   0.421E-02    0.277E-02
RMM:  19    -0.626859643159E+02   -0.19834E-04   -0.69239E-05  1669   0.400E-02    0.837E-03
RMM:  20    -0.626859819192E+02   -0.17603E-04   -0.60664E-05  1608   0.295E-02    0.124E-02
RMM:  21    -0.626859896074E+02   -0.76882E-05   -0.31959E-05  1395   0.312E-02
   6 F= -.65857950E+02 E0= -.65866749E+02  d E =0.190964E+02
       N       E                     dE             d eps       ncg     rms          rms(c)
DAV:   1    -0.829362842745E+02   -0.20250E+02   -0.54367E+02  2072   0.103E+02    0.144E+01
RMM:   2    -0.891530036991E+02   -0.62167E+01   -0.43955E+01  2751   0.318E+01    0.140E+01
RMM:   3    -0.837511438483E+02    0.54019E+01   -0.53306E+00  2545   0.137E+01    0.659E+00
RMM:   4    -0.826879261962E+02    0.10632E+01   -0.21670E+00  2498   0.863E+00    0.451E+00
RMM:   5    -0.822495425293E+02    0.43838E+00   -0.86854E-01  2289   0.687E+00    0.284E+00
RMM:   6    -0.821820180209E+02    0.67525E-01   -0.90783E-01  2743   0.366E+00    0.132E+00
RMM:   7    -0.821584820707E+02    0.23536E-01   -0.15988E-01  2268   0.290E+00    0.797E-01
RMM:   8    -0.821527343969E+02    0.57477E-02   -0.74965E-02  2684   0.126E+00    0.351E-01
RMM:   9    -0.821529250534E+02   -0.19066E-03   -0.15380E-02  2724   0.582E-01    0.220E-01
RMM:  10    -0.821533360151E+02   -0.41096E-03   -0.59523E-03  2784   0.317E-01    0.111E-01
RMM:  11    -0.821544063539E+02   -0.10703E-02   -0.20001E-03  2718   0.215E-01    0.803E-02
RMM:  12    -0.821545476017E+02   -0.14125E-03   -0.78200E-04  2719   0.102E-01    0.365E-02
RMM:  13    -0.821558233801E+02   -0.12758E-02   -0.68912E-04  2532   0.108E-01    0.541E-02
RMM:  14    -0.821565139411E+02   -0.69056E-03   -0.39818E-04  2250   0.704E-02    0.162E-02
RMM:  15    -0.821570346929E+02   -0.52075E-03   -0.16741E-04  1997   0.702E-02    0.151E-02
RMM:  16    -0.821573947393E+02   -0.36005E-03   -0.99066E-05  1708   0.355E-02    0.123E-02
RMM:  17    -0.821576130497E+02   -0.21831E-03   -0.73985E-05  1619   0.371E-02    0.483E-03
RMM:  18    -0.821577056896E+02   -0.92640E-04   -0.27185E-05  1451   0.347E-02    0.533E-03
RMM:  19    -0.821577296206E+02   -0.23931E-04   -0.86595E-06  1243   0.194E-02    0.216E-03
RMM:  20    -0.821577514638E+02   -0.21843E-04   -0.48048E-06  1245   0.153E-02    0.184E-03
RMM:  21    -0.821577588237E+02   -0.73599E-05   -0.32228E-06  1223   0.136E-02
   7 F= -.85309270E+02 E0= -.85311953E+02  d E =-.354921E+00
       N       E                     dE             d eps       ncg     rms          rms(c)
DAV:   1    -0.823144479423E+02   -0.15670E+00   -0.50431E+00  2096   0.931E+00    0.119E+00
RMM:   2    -0.823620884276E+02   -0.47640E-01   -0.24332E-01  2723   0.243E+00    0.173E+00
RMM:   3    -0.823040398995E+02    0.58049E-01   -0.45729E-02  2515   0.121E+00    0.545E-01
RMM:   4    -0.823038851523E+02    0.15475E-03   -0.29707E-02  2643   0.839E-01    0.414E-01
RMM:   5    -0.822966160585E+02    0.72691E-02   -0.82027E-03  2307   0.636E-01    0.207E-01
RMM:   6    -0.822966557750E+02   -0.39716E-04   -0.58055E-03  2777   0.289E-01    0.944E-02
RMM:   7    -0.822966158475E+02    0.39927E-04   -0.61442E-04  2426   0.165E-01    0.453E-02
RMM:   8    -0.822966457354E+02   -0.29888E-04   -0.35352E-04  2417   0.784E-02    0.249E-02
RMM:   9    -0.822966763384E+02   -0.30603E-04   -0.98819E-05  1835   0.578E-02    0.839E-03
RMM:  10    -0.822967012579E+02   -0.24920E-04   -0.37949E-05  1542   0.306E-02    0.647E-03
RMM:  11    -0.822967228346E+02   -0.21577E-04   -0.11088E-05  1241   0.277E-02    0.476E-03
RMM:  12    -0.822967823639E+02   -0.59529E-04   -0.20215E-05  1395   0.218E-02    0.427E-03
RMM:  13    -0.822968222680E+02   -0.39904E-04   -0.12701E-05  1308   0.257E-02    0.236E-03
RMM:  14    -0.822968402986E+02   -0.18031E-04   -0.71431E-06  1252   0.159E-02    0.229E-03
RMM:  15    -0.822968584036E+02   -0.18105E-04   -0.79469E-06  1295   0.161E-02    0.179E-03
RMM:  16    -0.822968617229E+02   -0.33193E-05   -0.38339E-06  1211   0.141E-02
   8 F= -.85446686E+02 E0= -.85448855E+02  d E =-.492336E+00
       N       E                     dE             d eps       ncg     rms          rms(c)
DAV:   1    -0.827557435805E+02   -0.45889E+00   -0.55977E+01  2424   0.341E+01    0.643E+00
RMM:   2    -0.849224479325E+02   -0.21667E+01   -0.77878E+00  2747   0.124E+01    0.103E+01
RMM:   3    -0.825030397397E+02    0.24194E+01   -0.16491E+00  2600   0.624E+00    0.393E+00
RMM:   4    -0.824010522203E+02    0.10199E+00   -0.53513E-01  2579   0.390E+00    0.255E+00
RMM:   5    -0.823561865373E+02    0.44866E-01   -0.33867E-01  2451   0.364E+00    0.105E+00
RMM:   6    -0.823167056228E+02    0.39481E-01   -0.64214E-02  2418   0.156E+00    0.407E-01
RMM:   7    -0.823142375396E+02    0.24681E-02   -0.29301E-02  2706   0.756E-01    0.119E-01
RMM:   8    -0.823146452600E+02   -0.40772E-03   -0.83136E-03  2821   0.365E-01    0.644E-02
RMM:   9    -0.823149770744E+02   -0.33181E-03   -0.24519E-03  2951   0.139E-01    0.389E-02
RMM:  10    -0.823151777178E+02   -0.20064E-03   -0.52264E-04  2676   0.101E-01    0.207E-02
RMM:  11    -0.823152649850E+02   -0.87267E-04   -0.16422E-04  2289   0.457E-02    0.126E-02
RMM:  12    -0.823155071505E+02   -0.24217E-03   -0.11533E-04  1981   0.436E-02    0.933E-03
RMM:  13    -0.823155556083E+02   -0.48458E-04   -0.38953E-05  1590   0.327E-02    0.628E-03
RMM:  14    -0.823157101409E+02   -0.15453E-03   -0.54740E-05  1627   0.302E-02    0.486E-03
RMM:  15    -0.823157600965E+02   -0.49956E-04   -0.26326E-05  1506   0.277E-02    0.277E-03
RMM:  16    -0.823157784256E+02   -0.18329E-04   -0.11184E-05  1334   0.235E-02    0.163E-03
RMM:  17    -0.823157889625E+02   -0.10537E-04   -0.78480E-06  1291   0.184E-02    0.105E-03
RMM:  18    -0.823157917657E+02   -0.28033E-05   -0.38410E-06  1225   0.152E-02
   9 F= -.85486946E+02 E0= -.85490501E+02  d E =-.402603E-01
       N       E                     dE             d eps       ncg     rms          rms(c)
DAV:   1    -0.827332928996E+02   -0.41750E+00   -0.14615E+01  2200   0.165E+01    0.330E+00
RMM:   2    -0.835516441043E+02   -0.81835E+00   -0.16187E+00  2785   0.577E+00    0.492E+00
RMM:   3    -0.826774989306E+02    0.87415E+00   -0.59832E-01  2481   0.402E+00    0.153E+00
RMM:   4    -0.826423190072E+02    0.35180E-01   -0.15365E-01  2523   0.233E+00    0.109E+00
RMM:   5    -0.826531883038E+02   -0.10869E-01   -0.16058E-01  2636   0.192E+00    0.988E-01
RMM:   6    -0.826391050114E+02    0.14083E-01   -0.19721E-02  2293   0.104E+00    0.470E-01
RMM:   7    -0.826354526289E+02    0.36524E-02   -0.26394E-02  2619   0.746E-01    0.929E-02
RMM:   8    -0.826360971741E+02   -0.64455E-03   -0.39060E-03  2756   0.247E-01    0.690E-02
RMM:   9    -0.826361929786E+02   -0.95804E-04   -0.65124E-04  2497   0.151E-01    0.338E-02
RMM:  10    -0.826363314726E+02   -0.13849E-03   -0.36140E-04  2363   0.712E-02    0.112E-02
RMM:  11    -0.826364421162E+02   -0.11064E-03   -0.12764E-04  1993   0.450E-02    0.564E-03
RMM:  12    -0.826364951495E+02   -0.53033E-04   -0.25286E-05  1413   0.317E-02    0.407E-03
RMM:  13    -0.826365285571E+02   -0.33408E-04   -0.12429E-05  1304   0.248E-02    0.253E-03
RMM:  14    -0.826365733275E+02   -0.44770E-04   -0.20284E-05  1393   0.233E-02    0.243E-03
RMM:  15    -0.826366102557E+02   -0.36928E-04   -0.27407E-05  1480   0.258E-02    0.383E-03
RMM:  16    -0.826366182216E+02   -0.79660E-05   -0.87945E-06  1289   0.189E-02
  10 F= -.85795821E+02 E0= -.85798706E+02  d E =-.349135E+00
       N       E                     dE             d eps       ncg     rms          rms(c)
DAV:   1    -0.826567522225E+02   -0.20142E-01   -0.37399E+00  2064   0.781E+00    0.112E+00
RMM:   2    -0.826842113948E+02   -0.27459E-01   -0.18135E-01  2644   0.252E+00    0.124E+00
RMM:   3    -0.826582504788E+02    0.25961E-01   -0.42217E-02  2644   0.111E+00    0.537E-01
RMM:   4    -0.826537604474E+02    0.44900E-02   -0.17815E-02  2657   0.663E-01    0.319E-01
RMM:   5    -0.826499679127E+02    0.37925E-02   -0.44004E-03  2296   0.475E-01    0.174E-01
RMM:   6    -0.826499118002E+02    0.56112E-04   -0.30344E-03  2789   0.212E-01    0.578E-02
RMM:   7    -0.826499010316E+02    0.10769E-04   -0.37420E-04  2290   0.131E-01    0.264E-02
RMM:   8    -0.826499454030E+02   -0.44371E-04   -0.18932E-04  2139   0.564E-02    0.162E-02
RMM:   9    -0.826499996483E+02   -0.54245E-04   -0.73734E-05  1737   0.537E-02    0.609E-03
RMM:  10    -0.826500323157E+02   -0.32667E-04   -0.25212E-05  1469   0.283E-02    0.540E-03
RMM:  11    -0.826500522677E+02   -0.19952E-04   -0.83565E-06  1259   0.251E-02    0.360E-03
RMM:  12    -0.826501048372E+02   -0.52569E-04   -0.14666E-05  1337   0.206E-02    0.423E-03
RMM:  13    -0.826501299313E+02   -0.25094E-04   -0.10110E-05  1302   0.246E-02    0.414E-03
RMM:  14    -0.826501378399E+02   -0.79086E-05   -0.58557E-06  1233   0.179E-02
  11 F= -.85807820E+02 E0= -.85810052E+02  d E =-.119998E-01
       N       E                     dE             d eps       ncg     rms          rms(c)
DAV:   1    -0.826777052784E+02   -0.27575E-01   -0.78873E-01  2080   0.352E+00    0.491E-01
RMM:   2    -0.826812691897E+02   -0.35639E-02   -0.32952E-02  2635   0.109E+00    0.492E-01
RMM:   3    -0.826777874116E+02    0.34818E-02   -0.85766E-03  2665   0.484E-01    0.262E-01
RMM:   4    -0.826767124808E+02    0.10749E-02   -0.33020E-03  2620   0.293E-01    0.140E-01
RMM:   5    -0.826760248757E+02    0.68761E-03   -0.86007E-04  2300   0.212E-01    0.773E-02
RMM:   6    -0.826760288523E+02   -0.39765E-05   -0.48424E-04  2466   0.105E-01    0.210E-02
RMM:   7    -0.826760594105E+02   -0.30558E-04   -0.73794E-05  1789   0.516E-02    0.117E-02
RMM:   8    -0.826760940465E+02   -0.34636E-04   -0.20435E-05  1364   0.349E-02    0.688E-03
RMM:   9    -0.826761179937E+02   -0.23947E-04   -0.11568E-05  1306   0.259E-02    0.331E-03
RMM:  10    -0.826761374259E+02   -0.19432E-04   -0.77127E-06  1253   0.220E-02    0.298E-03
RMM:  11    -0.826761573222E+02   -0.19896E-04   -0.72804E-06  1255   0.194E-02    0.307E-03
RMM:  12    -0.826761761890E+02   -0.18867E-04   -0.80516E-06  1302   0.159E-02    0.237E-03
RMM:  13    -0.826761908128E+02   -0.14624E-04   -0.10239E-05  1306   0.149E-02    0.293E-03
RMM:  14    -0.826761953374E+02   -0.45246E-05   -0.49130E-06  1244   0.160E-02
  12 F= -.85834548E+02 E0= -.85837081E+02  d E =-.387277E-01
       N       E                     dE             d eps       ncg     rms          rms(c)
DAV:   1    -0.827152273057E+02   -0.39036E-01   -0.13837E+00  2000   0.485E+00    0.903E-01
RMM:   2    -0.827827147563E+02   -0.67487E-01   -0.18476E-01  2762   0.200E+00    0.168E+00
RMM:   3    -0.827075788745E+02    0.75136E-01   -0.44521E-02  2520   0.114E+00    0.391E-01
RMM:   4    -0.827080574616E+02   -0.47859E-03   -0.17119E-02  2608   0.641E-01    0.278E-01
RMM:   5    -0.827058896505E+02    0.21678E-02   -0.70183E-03  2577   0.400E-01    0.116E-01
RMM:   6    -0.827058194254E+02    0.70225E-04   -0.14881E-03  2631   0.187E-01    0.691E-02
RMM:   7    -0.827058293345E+02   -0.99091E-05   -0.27528E-04  2321   0.755E-02    0.384E-02
RMM:   8    -0.827059255815E+02   -0.96247E-04   -0.20074E-04  2182   0.697E-02    0.130E-02
RMM:   9    -0.827059446112E+02   -0.19030E-04   -0.33751E-05  1528   0.345E-02    0.889E-03
RMM:  10    -0.827059576031E+02   -0.12992E-04   -0.97599E-06  1286   0.216E-02    0.466E-03
RMM:  11    -0.827059875800E+02   -0.29977E-04   -0.11174E-05  1292   0.200E-02    0.261E-03
RMM:  12    -0.827060221268E+02   -0.34547E-04   -0.11384E-05  1319   0.198E-02    0.198E-03
RMM:  13    -0.827060297054E+02   -0.75786E-05   -0.49902E-06  1232   0.150E-02
  13 F= -.85863655E+02 E0= -.85866133E+02  d E =-.291067E-01
       N       E                     dE             d eps       ncg     rms          rms(c)
DAV:   1    -0.827060390222E+02   -0.16895E-04   -0.35635E-04  2464   0.784E-02    0.137E-02
RMM:   2    -0.827060574857E+02   -0.18463E-04   -0.35092E-05  1461   0.312E-02    0.256E-02
RMM:   3    -0.827060431216E+02    0.14364E-04   -0.99593E-06  1211   0.383E-02    0.678E-03
RMM:   4    -0.827060456467E+02   -0.25251E-05   -0.37881E-06  1216   0.128E-02
  14 F= -.85863682E+02 E0= -.85866156E+02  d E =-.291334E-01
       N       E                     dE             d eps       ncg     rms          rms(c)
DAV:   1    -0.827293396870E+02   -0.23297E-01   -0.55567E-01  2000   0.332E+00    0.250E-01
RMM:   2    -0.827312791897E+02   -0.19395E-02   -0.26456E-02  2448   0.116E+00    0.249E-01
RMM:   3    -0.827315497506E+02   -0.27056E-03   -0.66356E-03  2745   0.377E-01    0.192E-01
RMM:   4    -0.827314059797E+02    0.14377E-03   -0.11125E-03  2671   0.162E-01    0.156E-01
RMM:   5    -0.827312610043E+02    0.14498E-03   -0.79222E-04  2445   0.160E-01    0.720E-02
RMM:   6    -0.827312332189E+02    0.27785E-04   -0.23750E-04  2272   0.745E-02    0.476E-02
RMM:   7    -0.827312008004E+02    0.32418E-04   -0.62925E-05  1775   0.633E-02    0.276E-02
RMM:   8    -0.827311889578E+02    0.11843E-04   -0.88668E-05  1804   0.510E-02    0.962E-03
RMM:   9    -0.827311901992E+02   -0.12414E-05   -0.12699E-05  1279   0.271E-02
  15 F= -.85888786E+02 E0= -.85891109E+02  d E =-.251046E-01
       N       E                     dE             d eps       ncg     rms          rms(c)
DAV:   1    -0.827526532905E+02   -0.21464E-01   -0.50123E+00  2000   0.996E+00    0.744E-01
RMM:   2    -0.827710452051E+02   -0.18392E-01   -0.23722E-01  2442   0.346E+00    0.747E-01
RMM:   3    -0.827728618274E+02   -0.18166E-02   -0.59380E-02  2745   0.114E+00    0.559E-01
RMM:   4    -0.827714056416E+02    0.14562E-02   -0.99200E-03  2727   0.481E-01    0.451E-01
RMM:   5    -0.827701319365E+02    0.12737E-02   -0.66286E-03  2451   0.453E-01    0.203E-01
RMM:   6    -0.827698759317E+02    0.25600E-03   -0.19180E-03  2691   0.210E-01    0.128E-01
RMM:   7    -0.827696327140E+02    0.24322E-03   -0.64730E-04  2493   0.164E-01    0.740E-02
RMM:   8    -0.827695340372E+02    0.98677E-04   -0.51137E-04  2419   0.121E-01    0.253E-02
RMM:   9    -0.827695430391E+02   -0.90019E-05   -0.97026E-05  1993   0.505E-02
  16 F= -.85927144E+02 E0= -.85928985E+02  d E =-.634624E-01
       N       E                     dE             d eps       ncg     rms          rms(c)
DAV:   1    -0.827700128739E+02   -0.47884E-03   -0.18028E-01  2144   0.187E+00    0.144E-01
RMM:   2    -0.827706145188E+02   -0.60164E-03   -0.87088E-03  2427   0.668E-01    0.135E-01
RMM:   3    -0.827707421485E+02   -0.12763E-03   -0.22151E-03  2719   0.219E-01    0.104E-01
RMM:   4    -0.827706743343E+02    0.67814E-04   -0.39593E-04  2483   0.982E-02    0.856E-02
RMM:   5    -0.827706236295E+02    0.50705E-04   -0.24667E-04  2206   0.934E-02    0.414E-02
RMM:   6    -0.827706164925E+02    0.71370E-05   -0.87156E-05  1858   0.570E-02
  17 F= -.85928239E+02 E0= -.85930017E+02  d E =-.645573E-01
       N       E                     dE             d eps       ncg     rms          rms(c)
DAV:   1    -0.827832226120E+02   -0.12599E-01   -0.43991E-01  2000   0.283E+00    0.282E-01
RMM:   2    -0.827850357840E+02   -0.18132E-02   -0.10317E-02  2396   0.842E-01    0.308E-01
RMM:   3    -0.827837867777E+02    0.12490E-02   -0.45497E-03  2706   0.341E-01    0.192E-01
RMM:   4    -0.827837147876E+02    0.71990E-04   -0.82282E-04  2585   0.159E-01    0.109E-01
RMM:   5    -0.827838501647E+02   -0.13538E-03   -0.10086E-03  2549   0.174E-01    0.723E-02
RMM:   6    -0.827836267540E+02    0.22341E-03   -0.15705E-04  2018   0.967E-02    0.182E-02
RMM:   7    -0.827836358259E+02   -0.90719E-05   -0.11410E-04  1833   0.501E-02    0.774E-03
RMM:   8    -0.827836408914E+02   -0.50654E-05   -0.30490E-05  1485   0.363E-02
  18 F= -.85941739E+02 E0= -.85943509E+02  d E =-.135002E-01
       N       E                     dE             d eps       ncg     rms          rms(c)
DAV:   1    -0.827912134954E+02   -0.75777E-02   -0.13792E+00  2000   0.504E+00    0.483E-01
RMM:   2    -0.827969214847E+02   -0.57080E-02   -0.30794E-02  2461   0.140E+00    0.519E-01
RMM:   3    -0.827931074472E+02    0.38140E-02   -0.12700E-02  2698   0.578E-01    0.317E-01
RMM:   4    -0.827928483977E+02    0.25905E-03   -0.25969E-03  2616   0.284E-01    0.165E-01
RMM:   5    -0.827930620170E+02   -0.21362E-03   -0.25100E-03  2549   0.280E-01    0.107E-01
RMM:   6    -0.827925779190E+02    0.48410E-03   -0.38519E-04  2262   0.145E-01    0.291E-02
RMM:   7    -0.827925999762E+02   -0.22057E-04   -0.23216E-04  2210   0.636E-02    0.131E-02
RMM:   8    -0.827926087973E+02   -0.88212E-05   -0.46119E-05  1623   0.407E-02
  19 F= -.85951577E+02 E0= -.85953380E+02  d E =-.233386E-01
       N       E                     dE             d eps       ncg     rms          rms(c)
DAV:   1    -0.827946680068E+02   -0.20680E-02   -0.14803E+00  2000   0.487E+00    0.700E-01
RMM:   2    -0.828474450011E+02   -0.52777E-01   -0.14655E-01  2740   0.163E+00    0.160E+00
RMM:   3    -0.827897355217E+02    0.57709E-01   -0.32039E-02  2515   0.956E-01    0.382E-01
RMM:   4    -0.827903253461E+02   -0.58982E-03   -0.99727E-03  2698   0.464E-01    0.272E-01
RMM:   5    -0.827896743260E+02    0.65102E-03   -0.34150E-03  2628   0.311E-01    0.140E-01
RMM:   6    -0.827895080239E+02    0.16630E-03   -0.15143E-03  2670   0.164E-01    0.451E-02
RMM:   7    -0.827895181606E+02   -0.10137E-04   -0.31908E-04  2379   0.891E-02    0.301E-02
RMM:   8    -0.827895327066E+02   -0.14546E-04   -0.84503E-05  1820   0.420E-02    0.173E-02
RMM:   9    -0.827895738894E+02   -0.41183E-04   -0.56381E-05  1578   0.500E-02    0.116E-02
RMM:  10    -0.827895761689E+02   -0.22795E-05   -0.10146E-05  1258   0.243E-02
  20 F= -.85948365E+02 E0= -.85950000E+02  d E =0.321202E-02
       N       E                     dE             d eps       ncg     rms          rms(c)
DAV:   1    -0.827973294122E+02   -0.77555E-02   -0.52141E-01  2000   0.285E+00    0.413E-01
RMM:   2    -0.828152414190E+02   -0.17912E-01   -0.45923E-02  2737   0.952E-01    0.893E-01
RMM:   3    -0.827950842767E+02    0.20157E-01   -0.10575E-02  2443   0.572E-01    0.217E-01
RMM:   4    -0.827956459783E+02   -0.56170E-03   -0.37156E-03  2705   0.294E-01    0.160E-01
RMM:   5    -0.827953936473E+02    0.25233E-03   -0.14314E-03  2652   0.180E-01    0.761E-02
RMM:   6    -0.827953852498E+02    0.83976E-05   -0.41707E-04  2394   0.924E-02    0.283E-02
RMM:   7    -0.827953919898E+02   -0.67400E-05   -0.75917E-05  1774   0.537E-02
  21 F= -.85954289E+02 E0= -.85956028E+02  d E =-.271202E-02
       N       E                     dE             d eps       ncg     rms          rms(c)
DAV:   1    -0.827990518455E+02   -0.36666E-02   -0.93340E-01  2000   0.418E+00    0.267E-01
RMM:   2    -0.828013116511E+02   -0.22598E-02   -0.28333E-02  2560   0.106E+00    0.243E-01
RMM:   3    -0.828018105067E+02   -0.49886E-03   -0.59806E-03  2712   0.341E-01    0.195E-01
RMM:   4    -0.828020018942E+02   -0.19139E-03   -0.14023E-03  2675   0.177E-01    0.191E-01
RMM:   5    -0.828016462138E+02    0.35568E-03   -0.10579E-03  2494   0.148E-01    0.925E-02
RMM:   6    -0.828016186484E+02    0.27565E-04   -0.99266E-05  1869   0.630E-02    0.584E-02
RMM:   7    -0.828015858396E+02    0.32809E-04   -0.15873E-04  2025   0.676E-02    0.316E-02
RMM:   8    -0.828015623330E+02    0.23507E-04   -0.57736E-05  1617   0.474E-02    0.827E-03
RMM:   9    -0.828015653590E+02   -0.30260E-05   -0.13270E-05  1318   0.269E-02
  22 F= -.85959771E+02 E0= -.85961527E+02  d E =-.548180E-02
       N       E                     dE             d eps       ncg     rms          rms(c)
DAV:   1    -0.828021265829E+02   -0.56425E-03   -0.31777E-01  2000   0.243E+00    0.160E-01
RMM:   2    -0.828028336069E+02   -0.70702E-03   -0.90118E-03  2581   0.624E-01    0.135E-01
RMM:   3    -0.828030279551E+02   -0.19435E-03   -0.19587E-03  2599   0.199E-01    0.108E-01
RMM:   4    -0.828030680631E+02   -0.40108E-04   -0.47649E-04  2457   0.111E-01    0.103E-01
RMM:   5    -0.828029438445E+02    0.12422E-03   -0.27520E-04  2149   0.794E-02    0.449E-02
RMM:   6    -0.828029364731E+02    0.73714E-05   -0.25106E-05  1395   0.350E-02
  23 F= -.85960738E+02 E0= -.85962508E+02  d E =-.644832E-02
       N       E                     dE             d eps       ncg     rms          rms(c)
DAV:   1    -0.828103290960E+02   -0.73853E-02   -0.47624E-01  2000   0.299E+00    0.248E-01
RMM:   2    -0.828133539985E+02   -0.30249E-02   -0.16630E-02  2601   0.820E-01    0.318E-01
RMM:   3    -0.828115048724E+02    0.18491E-02   -0.45648E-03  2677   0.335E-01    0.141E-01
RMM:   4    -0.828111778032E+02    0.32707E-03   -0.89856E-04  2558   0.170E-01    0.844E-02
RMM:   5    -0.828110997839E+02    0.78019E-04   -0.24810E-04  2269   0.101E-01    0.556E-02
RMM:   6    -0.828110928222E+02    0.69618E-05   -0.12757E-04  1974   0.552E-02    0.173E-02
RMM:   7    -0.828110997564E+02   -0.69342E-05   -0.26698E-05  1405   0.365E-02
  24 F= -.85967493E+02 E0= -.85969309E+02  d E =-.675538E-02
       N       E                     dE             d eps       ncg     rms          rms(c)
DAV:   1    -0.828171565383E+02   -0.60637E-02   -0.29499E+00  2000   0.746E+00    0.599E-01
RMM:   2    -0.828358861132E+02   -0.18730E-01   -0.94392E-02  2592   0.196E+00    0.778E-01
RMM:   3    -0.828239512930E+02    0.11935E-01   -0.26506E-02  2654   0.821E-01    0.336E-01
RMM:   4    -0.828222527150E+02    0.16986E-02   -0.51805E-03  2626   0.401E-01    0.199E-01
RMM:   5    -0.828219321103E+02    0.32060E-03   -0.16060E-03  2548   0.241E-01    0.132E-01
RMM:   6    -0.828217913925E+02    0.14072E-03   -0.71449E-04  2630   0.129E-01    0.413E-02
RMM:   7    -0.828218244116E+02   -0.33019E-04   -0.16291E-04  2165   0.622E-02    0.163E-02
RMM:   8    -0.828218316990E+02   -0.72874E-05   -0.37774E-05  1544   0.472E-02
  25 F= -.85974763E+02 E0= -.85976666E+02  d E =-.140249E-01
       N       E                     dE             d eps       ncg     rms          rms(c)
DAV:   1    -0.828248201456E+02   -0.29957E-02   -0.69120E-02  2048   0.114E+00    0.927E-02
RMM:   2    -0.828251478127E+02   -0.32767E-03   -0.33109E-03  2723   0.309E-01    0.102E-01
RMM:   3    -0.828250480461E+02    0.99767E-04   -0.65564E-04  2516   0.120E-01    0.544E-02
RMM:   4    -0.828250067253E+02    0.41321E-04   -0.13024E-04  2015   0.655E-02    0.374E-02
RMM:   5    -0.828250013568E+02    0.53684E-05   -0.37071E-05  1513   0.512E-02
  26 F= -.85977348E+02 E0= -.85979251E+02  d E =-.258521E-02
       N       E                     dE             d eps       ncg     rms          rms(c)
DAV:   1    -0.828283134245E+02   -0.33067E-02   -0.16561E-01  2000   0.176E+00    0.151E-01
RMM:   2    -0.828290539589E+02   -0.74053E-03   -0.80685E-03  2738   0.474E-01    0.163E-01
RMM:   3    -0.828288145121E+02    0.23945E-03   -0.16242E-03  2665   0.186E-01    0.913E-02
RMM:   4    -0.828286859388E+02    0.12857E-03   -0.31374E-04  2343   0.100E-01    0.604E-02
RMM:   5    -0.828286609083E+02    0.25030E-04   -0.91596E-05  1921   0.711E-02    0.449E-02
RMM:   6    -0.828286580338E+02    0.28745E-05   -0.15048E-04  1881   0.562E-02    0.216E-02
RMM:   7    -0.828286506428E+02    0.73910E-05   -0.25760E-05  1409   0.367E-02
  27 F= -.85980096E+02 E0= -.85981918E+02  d E =-.533323E-02
       N       E                     dE             d eps       ncg     rms          rms(c)
DAV:   1    -0.828300104932E+02   -0.13525E-02   -0.66187E-01  2000   0.351E+00    0.281E-01
RMM:   2    -0.828333662626E+02   -0.33558E-02   -0.31160E-02  2734   0.953E-01    0.338E-01
RMM:   3    -0.828319979719E+02    0.13683E-02   -0.62447E-03  2703   0.365E-01    0.164E-01
RMM:   4    -0.828317032561E+02    0.29472E-03   -0.11500E-03  2595   0.192E-01    0.120E-01
RMM:   5    -0.828316040945E+02    0.99162E-04   -0.37111E-04  2389   0.126E-01    0.883E-02
RMM:   6    -0.828315640809E+02    0.40014E-04   -0.49863E-04  2378   0.995E-02    0.363E-02
RMM:   7    -0.828315436094E+02    0.20471E-04   -0.10302E-04  1908   0.565E-02    0.133E-02
RMM:   8    -0.828315481303E+02   -0.45209E-05   -0.22199E-05  1388   0.417E-02
  28 F= -.85981195E+02 E0= -.85982923E+02  d E =-.643270E-02
       N       E                     dE             d eps       ncg     rms          rms(c)
DAV:   1    -0.828311151414E+02    0.42847E-03   -0.65612E-02  2032   0.111E+00    0.889E-02
RMM:   2    -0.828314272756E+02   -0.31213E-03   -0.31510E-03  2733   0.298E-01    0.994E-02
RMM:   3    -0.828313300057E+02    0.97270E-04   -0.56324E-04  2410   0.110E-01    0.533E-02
RMM:   4    -0.828313003638E+02    0.29642E-04   -0.10791E-04  1904   0.623E-02    0.377E-02
RMM:   5    -0.828312937260E+02    0.66378E-05   -0.32671E-05  1469   0.491E-02
  29 F= -.85981509E+02 E0= -.85983236E+02  d E =-.674609E-02
       N       E                     dE             d eps       ncg     rms          rms(c)
DAV:   1    -0.828333204588E+02   -0.20201E-02   -0.56756E-02  2000   0.104E+00    0.713E-02
RMM:   2    -0.828336035472E+02   -0.28309E-03   -0.20410E-03  2561   0.272E-01    0.804E-02
RMM:   3    -0.828335265270E+02    0.77020E-04   -0.57572E-04  2374   0.112E-01    0.514E-02
RMM:   4    -0.828334823636E+02    0.44163E-04   -0.68579E-05  1647   0.582E-02    0.296E-02
RMM:   5    -0.828334828466E+02   -0.48304E-06   -0.22707E-05  1344   0.400E-02
  30 F= -.85983164E+02 E0= -.85984904E+02  d E =-.165500E-02
       N       E                     dE             d eps       ncg     rms          rms(c)
DAV:   1    -0.828377239795E+02   -0.42416E-02   -0.51174E-01  2000   0.311E+00    0.238E-01
RMM:   2    -0.828404336556E+02   -0.27097E-02   -0.19844E-02  2566   0.839E-01    0.256E-01
RMM:   3    -0.828396331109E+02    0.80054E-03   -0.53083E-03  2733   0.338E-01    0.172E-01
RMM:   4    -0.828390818944E+02    0.55122E-03   -0.70101E-04  2495   0.145E-01    0.913E-02
RMM:   5    -0.828390983190E+02   -0.16425E-04   -0.27157E-04  2265   0.921E-02    0.646E-02
RMM:   6    -0.828390589637E+02    0.39355E-04   -0.15235E-04  2092   0.707E-02    0.224E-02
RMM:   7    -0.828390551850E+02    0.37787E-05   -0.35188E-05  1497   0.371E-02
  31 F= -.85987136E+02 E0= -.85988821E+02  d E =-.562752E-02
       N       E                     dE             d eps       ncg     rms          rms(c)
DAV:   1    -0.828406621495E+02   -0.16032E-02   -0.20550E+00  2000   0.621E+00    0.462E-01
RMM:   2    -0.828508792964E+02   -0.10217E-01   -0.72867E-02  2594   0.160E+00    0.491E-01
RMM:   3    -0.828480027162E+02    0.28766E-02   -0.20385E-02  2736   0.659E-01    0.336E-01
RMM:   4    -0.828459550033E+02    0.20477E-02   -0.26140E-03  2555   0.281E-01    0.175E-01
RMM:   5    -0.828460011633E+02   -0.46160E-04   -0.10869E-03  2551   0.186E-01    0.124E-01
RMM:   6    -0.828458186274E+02    0.18254E-03   -0.57665E-04  2471   0.132E-01    0.419E-02
RMM:   7    -0.828458088410E+02    0.97863E-05   -0.15847E-04  2055   0.601E-02    0.103E-02
RMM:   8    -0.828458120266E+02   -0.31856E-05   -0.25788E-05  1423   0.367E-02
  32 F= -.85990704E+02 E0= -.85992276E+02  d E =-.919545E-02
       N       E                     dE             d eps       ncg     rms          rms(c)
DAV:   1    -0.828477230397E+02   -0.19142E-02   -0.43878E-02  2352   0.845E-01    0.141E-01
RMM:   2    -0.828502858639E+02   -0.25628E-02   -0.47615E-03  2706   0.337E-01    0.343E-01
RMM:   3    -0.828473828808E+02    0.29030E-02   -0.13629E-03  2402   0.202E-01    0.544E-02
RMM:   4    -0.828474381484E+02   -0.55268E-04   -0.47623E-04  2498   0.101E-01    0.365E-02
RMM:   5    -0.828474057669E+02    0.32382E-04   -0.17831E-04  2043   0.591E-02    0.156E-02
RMM:   6    -0.828474066238E+02   -0.85692E-06   -0.25213E-05  1446   0.361E-02
  33 F= -.85991767E+02 E0= -.85993358E+02  d E =-.106257E-02
       N       E                     dE             d eps       ncg     rms          rms(c)
DAV:   1    -0.828479732883E+02   -0.56752E-03   -0.15175E-02  2336   0.500E-01    0.865E-02
RMM:   2    -0.828489192901E+02   -0.94600E-03   -0.18285E-03  2683   0.210E-01    0.209E-01
RMM:   3    -0.828478490560E+02    0.10702E-02   -0.51821E-04  2353   0.126E-01    0.336E-02
RMM:   4    -0.828478772171E+02   -0.28161E-04   -0.15765E-04  2081   0.679E-02    0.235E-02
RMM:   5    -0.828478656499E+02    0.11567E-04   -0.77415E-05  1660   0.446E-02    0.932E-03
RMM:   6    -0.828478675105E+02   -0.18606E-05   -0.15130E-05  1330   0.329E-02
  34 F= -.85991914E+02 E0= -.85993504E+02  d E =-.120940E-02
       N       E                     dE             d eps       ncg     rms          rms(c)
DAV:   1    -0.828488773118E+02   -0.10117E-02   -0.43617E-03  2384   0.284E-01    0.375E-02
RMM:   2    -0.828489237620E+02   -0.46450E-04   -0.19998E-04  2152   0.972E-02    0.452E-02
RMM:   3    -0.828488849428E+02    0.38819E-04   -0.75295E-05  1750   0.515E-02    0.216E-02
RMM:   4    -0.828488799764E+02    0.49664E-05   -0.15867E-05  1232   0.377E-02
  35 F= -.85992605E+02 E0= -.85994185E+02  d E =-.691611E-03
       N       E                     dE             d eps       ncg     rms          rms(c)
DAV:   1    -0.828513575694E+02   -0.24726E-02   -0.39467E-02  2032   0.853E-01    0.113E-01
RMM:   2    -0.828517322570E+02   -0.37469E-03   -0.18160E-03  2508   0.281E-01    0.126E-01
RMM:   3    -0.828514399439E+02    0.29231E-03   -0.69525E-04  2534   0.132E-01    0.696E-02
RMM:   4    -0.828513580198E+02    0.81924E-04   -0.13135E-04  1982   0.719E-02    0.315E-02
RMM:   5    -0.828513466792E+02    0.11341E-04   -0.45329E-05  1634   0.534E-02    0.185E-02
RMM:   6    -0.828513413863E+02    0.52929E-05   -0.15145E-05  1257   0.320E-02
  36 F= -.85994106E+02 E0= -.85995618E+02  d E =-.219231E-02
       N       E                     dE             d eps       ncg     rms          rms(c)
DAV:   1    -0.828538681474E+02   -0.25215E-02   -0.15750E-01  2080   0.170E+00    0.217E-01
RMM:   2    -0.828553029757E+02   -0.14348E-02   -0.68408E-03  2517   0.538E-01    0.249E-01
RMM:   3    -0.828541663343E+02    0.11366E-02   -0.25366E-03  2661   0.254E-01    0.133E-01
RMM:   4    -0.828538746452E+02    0.29169E-03   -0.53093E-04  2489   0.134E-01    0.650E-02
RMM:   5    -0.828538086784E+02    0.65967E-04   -0.16919E-04  2120   0.834E-02    0.358E-02
RMM:   6    -0.828537909868E+02    0.17692E-04   -0.57982E-05  1682   0.452E-02    0.100E-02
RMM:   7    -0.828537947333E+02   -0.37465E-05   -0.15771E-05  1291   0.335E-02
  37 F= -.85994648E+02 E0= -.85996059E+02  d E =-.273398E-02
       N       E                     dE             d eps       ncg     rms          rms(c)
DAV:   1    -0.828533474036E+02    0.44358E-03   -0.17806E-02  2072   0.571E-01    0.741E-02
RMM:   2    -0.828535165837E+02   -0.16918E-03   -0.79028E-04  2468   0.187E-01    0.853E-02
RMM:   3    -0.828533799499E+02    0.13663E-03   -0.29041E-04  2298   0.881E-02    0.452E-02
RMM:   4    -0.828533461485E+02    0.33801E-04   -0.50989E-05  1631   0.514E-02    0.206E-02
RMM:   5    -0.828533462367E+02   -0.88108E-07   -0.17816E-05  1277   0.393E-02
  38 F= -.85994843E+02 E0= -.85996293E+02  d E =-.292981E-02
       N       E                     dE             d eps       ncg     rms          rms(c)
DAV:   1    -0.828547758657E+02   -0.14297E-02   -0.30012E-02  2000   0.722E-01    0.583E-02
RMM:   2    -0.828550351629E+02   -0.25930E-03   -0.15894E-03  2739   0.208E-01    0.969E-02
RMM:   3    -0.828548504541E+02    0.18471E-03   -0.20150E-04  2120   0.767E-02    0.350E-02
RMM:   4    -0.828548502569E+02    0.19717E-06   -0.38747E-05  1527   0.467E-02
  39 F= -.85995912E+02 E0= -.85997324E+02  d E =-.106831E-02
       N       E                     dE             d eps       ncg     rms          rms(c)
DAV:   1    -0.828569508116E+02   -0.21004E-02   -0.24425E-01  2000   0.206E+00    0.178E-01
RMM:   2    -0.828588300450E+02   -0.18792E-02   -0.12416E-02  2752   0.599E-01    0.264E-01
RMM:   3    -0.828574990978E+02    0.13309E-02   -0.17518E-03  2617   0.218E-01    0.108E-01
RMM:   4    -0.828574649006E+02    0.34197E-04   -0.29328E-04  2357   0.105E-01    0.802E-02
RMM:   5    -0.828574649449E+02   -0.44291E-07   -0.33455E-04  2348   0.984E-02    0.562E-02
RMM:   6    -0.828573959565E+02    0.68988E-04   -0.20539E-04  2124   0.777E-02    0.220E-02
RMM:   7    -0.828573917041E+02    0.42523E-05   -0.43963E-05  1641   0.373E-02
  40 F= -.85997218E+02 E0= -.85998534E+02  d E =-.237466E-02
       N       E                     dE             d eps       ncg     rms          rms(c)
DAV:   1    -0.828582582665E+02   -0.86231E-03   -0.98502E-03  2240   0.425E-01    0.331E-02
RMM:   2    -0.828583189904E+02   -0.60724E-04   -0.26433E-04  2164   0.122E-01    0.477E-02
RMM:   3    -0.828582794979E+02    0.39492E-04   -0.11372E-04  1721   0.560E-02    0.194E-02
RMM:   4    -0.828582782502E+02    0.12478E-05   -0.18776E-05  1278   0.421E-02
  41 F= -.85997863E+02 E0= -.85999203E+02  d E =-.645243E-03
       N       E                     dE             d eps       ncg     rms          rms(c)
DAV:   1    -0.828603146154E+02   -0.20351E-02   -0.87556E-02  2000   0.127E+00    0.105E-01
RMM:   2    -0.828610177967E+02   -0.70318E-03   -0.30385E-03  2514   0.377E-01    0.161E-01
RMM:   3    -0.828605181132E+02    0.49968E-03   -0.10967E-03  2555   0.156E-01    0.641E-02
RMM:   4    -0.828604803882E+02    0.37725E-04   -0.15706E-04  2032   0.763E-02    0.418E-02
RMM:   5    -0.828604786488E+02    0.17395E-05   -0.43531E-05  1617   0.527E-02
  42 F= -.85999341E+02 E0= -.86000652E+02  d E =-.212318E-02
       N       E                     dE             d eps       ncg     rms          rms(c)
DAV:   1    -0.828621657599E+02   -0.16854E-02   -0.34812E-01  2000   0.253E+00    0.208E-01
RMM:   2    -0.828650011682E+02   -0.28354E-02   -0.13646E-02  2495   0.742E-01    0.315E-01
RMM:   3    -0.828630613869E+02    0.19398E-02   -0.33193E-03  2674   0.294E-01    0.124E-01
RMM:   4    -0.828628649571E+02    0.19643E-03   -0.60878E-04  2537   0.142E-01    0.789E-02
RMM:   5    -0.828628497220E+02    0.15235E-04   -0.18642E-04  2144   0.848E-02    0.559E-02
RMM:   6    -0.828628262146E+02    0.23507E-04   -0.93917E-05  1809   0.561E-02    0.159E-02
RMM:   7    -0.828628297307E+02   -0.35160E-05   -0.24620E-05  1405   0.349E-02
  43 F= -.86000253E+02 E0= -.86001580E+02  d E =-.303460E-02
       N       E                     dE             d eps       ncg     rms          rms(c)
DAV:   1    -0.828626147570E+02    0.21146E-03   -0.91313E-03  2296   0.411E-01    0.318E-02
RMM:   2    -0.828626878906E+02   -0.73134E-04   -0.38859E-04  2157   0.113E-01    0.480E-02
RMM:   3    -0.828626423391E+02    0.45551E-04   -0.74678E-05  1675   0.497E-02    0.193E-02
RMM:   4    -0.828626386331E+02    0.37060E-05   -0.16943E-05  1294   0.395E-02
  44 F= -.86000294E+02 E0= -.86001610E+02  d E =-.307563E-02
       N       E                     dE             d eps       ncg     rms          rms(c)
DAV:   1    -0.828635939882E+02   -0.95165E-03   -0.89926E-03  2000   0.414E-01    0.268E-02
RMM:   2    -0.828636206244E+02   -0.26636E-04   -0.31753E-04  2351   0.113E-01    0.139E-02
RMM:   3    -0.828636290263E+02   -0.84019E-05   -0.71336E-05  1501   0.441E-02
  45 F= -.86000963E+02 E0= -.86002286E+02  d E =-.669093E-03
       N       E                     dE             d eps       ncg     rms          rms(c)
DAV:   1    -0.828660857505E+02   -0.24651E-02   -0.81481E-02  2000   0.125E+00    0.845E-02
RMM:   2    -0.828663199472E+02   -0.23420E-03   -0.28146E-03  2368   0.377E-01    0.647E-02
RMM:   3    -0.828664421917E+02   -0.12224E-03   -0.10520E-03  2541   0.137E-01    0.714E-02
RMM:   4    -0.828663690889E+02    0.73103E-04   -0.15427E-04  2035   0.731E-02    0.416E-02
RMM:   5    -0.828663775239E+02   -0.84350E-05   -0.55244E-05  1676   0.495E-02
  46 F= -.86002750E+02 E0= -.86004083E+02  d E =-.245647E-02
       N       E                     dE             d eps       ncg     rms          rms(c)
DAV:   1    -0.828699854532E+02   -0.36164E-02   -0.32342E-01  2000   0.249E+00    0.174E-01
RMM:   2    -0.828707035428E+02   -0.71809E-03   -0.10259E-02  2388   0.725E-01    0.112E-01
RMM:   3    -0.828711722229E+02   -0.46868E-03   -0.39305E-03  2753   0.270E-01    0.122E-01
RMM:   4    -0.828709746541E+02    0.19757E-03   -0.52920E-04  2509   0.105E-01    0.729E-02
RMM:   5    -0.828710129041E+02   -0.38250E-04   -0.27617E-04  2355   0.892E-02    0.530E-02
RMM:   6    -0.828709701036E+02    0.42801E-04   -0.12816E-04  1963   0.709E-02    0.301E-02
RMM:   7    -0.828709601730E+02    0.99306E-05   -0.31138E-05  1474   0.370E-02
  47 F= -.86005423E+02 E0= -.86006798E+02  d E =-.512916E-02
       N       E                     dE             d eps       ncg     rms          rms(c)
DAV:   1    -0.828728037397E+02   -0.18336E-02   -0.12997E+00  2000   0.497E+00    0.324E-01
RMM:   2    -0.828758659964E+02   -0.30623E-02   -0.40015E-02  2408   0.140E+00    0.210E-01
RMM:   3    -0.828772998457E+02   -0.14338E-02   -0.11727E-02  2768   0.466E-01    0.225E-01
RMM:   4    -0.828766045954E+02    0.69525E-03   -0.16503E-03  2675   0.184E-01    0.137E-01
RMM:   5    -0.828767845510E+02   -0.17996E-03   -0.11582E-03  2660   0.175E-01    0.908E-02
RMM:   6    -0.828766122693E+02    0.17228E-03   -0.33473E-04  2310   0.116E-01    0.495E-02
RMM:   7    -0.828765784962E+02    0.33773E-04   -0.15543E-04  2070   0.609E-02    0.128E-02
RMM:   8    -0.828765866864E+02   -0.81901E-05   -0.61737E-05  1743   0.433E-02
  48 F= -.86007278E+02 E0= -.86008764E+02  d E =-.698429E-02
       N       E                     dE             d eps       ncg     rms          rms(c)
DAV:   1    -0.828776237785E+02   -0.10453E-02   -0.36860E-01  2048   0.246E+00    0.297E-01
RMM:   2    -0.828897943908E+02   -0.12171E-01   -0.35638E-02  2755   0.828E-01    0.761E-01
RMM:   3    -0.828767824640E+02    0.13012E-01   -0.70772E-03  2595   0.439E-01    0.160E-01
RMM:   4    -0.828769916265E+02   -0.20916E-03   -0.19841E-03  2650   0.213E-01    0.118E-01
RMM:   5    -0.828768362157E+02    0.15541E-03   -0.60699E-04  2520   0.135E-01    0.754E-02
RMM:   6    -0.828767898868E+02    0.46329E-04   -0.51915E-04  2425   0.873E-02    0.238E-02
RMM:   7    -0.828767990248E+02   -0.91380E-05   -0.72069E-05  1762   0.483E-02
  49 F= -.86005761E+02 E0= -.86007176E+02  d E =0.151703E-02
       N       E                     dE             d eps       ncg     rms          rms(c)
DAV:   1    -0.828780149107E+02   -0.12250E-02   -0.16362E-01  2000   0.164E+00    0.197E-01
RMM:   2    -0.828831048594E+02   -0.50899E-02   -0.15197E-02  2738   0.551E-01    0.485E-01
RMM:   3    -0.828776477276E+02    0.54571E-02   -0.29617E-03  2524   0.290E-01    0.103E-01
RMM:   4    -0.828777524916E+02   -0.10476E-03   -0.86376E-04  2590   0.146E-01    0.773E-02
RMM:   5    -0.828776952731E+02    0.57218E-04   -0.27857E-04  2282   0.861E-02    0.502E-02
RMM:   6    -0.828776933430E+02    0.19301E-05   -0.18819E-04  2044   0.589E-02    0.155E-02
RMM:   7    -0.828777004984E+02   -0.71554E-05   -0.26514E-05  1416   0.346E-02
  50 F= -.86007817E+02 E0= -.86009275E+02  d E =-.538551E-03
       N       E                     dE             d eps       ncg     rms          rms(c)
DAV:   1    -0.828790282422E+02   -0.13349E-02   -0.27281E-02  2048   0.718E-01    0.563E-02
RMM:   2    -0.828791931299E+02   -0.16489E-03   -0.12450E-03  2488   0.223E-01    0.625E-02
RMM:   3    -0.828791564977E+02    0.36632E-04   -0.35690E-04  2332   0.830E-02    0.412E-02
RMM:   4    -0.828791279488E+02    0.28549E-04   -0.49470E-05  1561   0.566E-02    0.220E-02
RMM:   5    -0.828791273714E+02    0.57744E-06   -0.16822E-05  1276   0.342E-02
  51 F= -.86008552E+02 E0= -.86010014E+02  d E =-.735568E-03
       N       E                     dE             d eps       ncg     rms          rms(c)
DAV:   1    -0.828812416518E+02   -0.21137E-02   -0.21235E-01  2000   0.200E+00    0.158E-01
RMM:   2    -0.828824294874E+02   -0.11878E-02   -0.90344E-03  2436   0.629E-01    0.167E-01
RMM:   3    -0.828821902444E+02    0.23924E-03   -0.26838E-03  2756   0.234E-01    0.115E-01
RMM:   4    -0.828819489665E+02    0.24128E-03   -0.33024E-04  2455   0.103E-01    0.615E-02
RMM:   5    -0.828819353081E+02    0.13658E-04   -0.11056E-04  1981   0.704E-02    0.437E-02
RMM:   6    -0.828819191974E+02    0.16111E-04   -0.77589E-05  1774   0.493E-02    0.134E-02
RMM:   7    -0.828819180213E+02    0.11760E-05   -0.14487E-05  1291   0.342E-02
  52 F= -.86009425E+02 E0= -.86010891E+02  d E =-.160853E-02
       N       E                     dE             d eps       ncg     rms          rms(c)
DAV:   1    -0.828828716969E+02   -0.95250E-03   -0.48357E-03  2256   0.301E-01    0.353E-02
RMM:   2    -0.828829481164E+02   -0.76420E-04   -0.29078E-04  2526   0.114E-01    0.552E-02
RMM:   3    -0.828828830875E+02    0.65029E-04   -0.87356E-05  1906   0.479E-02    0.165E-02
RMM:   4    -0.828828826227E+02    0.46486E-06   -0.18649E-05  1296   0.424E-02
  53 F= -.86009913E+02 E0= -.86011403E+02  d E =-.488325E-03
       N       E                     dE             d eps       ncg     rms          rms(c)
DAV:   1    -0.828854526608E+02   -0.25696E-02   -0.43656E-02  2000   0.900E-01    0.109E-01
RMM:   2    -0.828861721730E+02   -0.71951E-03   -0.24590E-03  2501   0.348E-01    0.169E-01
RMM:   3    -0.828855707633E+02    0.60141E-03   -0.94895E-04  2648   0.146E-01    0.532E-02
RMM:   4    -0.828855503344E+02    0.20429E-04   -0.18469E-04  2201   0.846E-02    0.337E-02
RMM:   5    -0.828855181735E+02    0.32161E-04   -0.39792E-05  1599   0.497E-02    0.173E-02
RMM:   6    -0.828855167193E+02    0.14542E-05   -0.22779E-05  1387   0.285E-02
  54 F= -.86011121E+02 E0= -.86012614E+02  d E =-.169628E-02
       N       E                     dE             d eps       ncg     rms          rms(c)
DAV:   1    -0.828894241006E+02   -0.39059E-02   -0.17425E-01  2000   0.180E+00    0.212E-01
RMM:   2    -0.828922274523E+02   -0.28034E-02   -0.97459E-03  2507   0.695E-01    0.331E-01
RMM:   3    -0.828899307562E+02    0.22967E-02   -0.35765E-03  2705   0.282E-01    0.101E-01
RMM:   4    -0.828898269064E+02    0.10385E-03   -0.70091E-04  2580   0.151E-01    0.663E-02
RMM:   5    -0.828897076751E+02    0.11923E-03   -0.15036E-04  2107   0.858E-02    0.336E-02
RMM:   6    -0.828897037883E+02    0.38868E-05   -0.87100E-05  1793   0.423E-02
  55 F= -.86012469E+02 E0= -.86013989E+02  d E =-.304370E-02
       N       E                     dE             d eps       ncg     rms          rms(c)
DAV:   1    -0.828911501602E+02   -0.14425E-02   -0.40800E-02  2000   0.872E-01    0.104E-01
RMM:   2    -0.828918310896E+02   -0.68093E-03   -0.23270E-03  2507   0.340E-01    0.164E-01
RMM:   3    -0.828912587773E+02    0.57231E-03   -0.87013E-04  2648   0.139E-01    0.496E-02
RMM:   4    -0.828912449368E+02    0.13841E-04   -0.17624E-04  2189   0.797E-02    0.327E-02
RMM:   5    -0.828912155924E+02    0.29344E-04   -0.35993E-05  1541   0.485E-02    0.158E-02
RMM:   6    -0.828912162171E+02   -0.62465E-06   -0.20953E-05  1385   0.277E-02
  56 F= -.86012614E+02 E0= -.86014141E+02  d E =-.318908E-02
       N       E                     dE             d eps       ncg     rms          rms(c)
DAV:   1    -0.828921250970E+02   -0.90950E-03   -0.56298E-02  2048   0.982E-01    0.119E-01
RMM:   2    -0.828941802196E+02   -0.20551E-02   -0.59587E-03  2780   0.344E-01    0.307E-01
RMM:   3    -0.828919214271E+02    0.22588E-02   -0.11024E-03  2552   0.181E-01    0.608E-02
RMM:   4    -0.828920005457E+02   -0.79119E-04   -0.34032E-04  2330   0.902E-02    0.431E-02
RMM:   5    -0.828919707228E+02    0.29823E-04   -0.11546E-04  1951   0.610E-02    0.269E-02
RMM:   6    -0.828919622223E+02    0.85005E-05   -0.78087E-05  1741   0.440E-02
  57 F= -.86012555E+02 E0= -.86014056E+02  d E =0.591530E-04
       N       E                     dE             d eps       ncg     rms          rms(c)
DAV:   1    -0.828918292256E+02    0.14150E-03   -0.15298E-02  2096   0.512E-01    0.607E-02
RMM:   2    -0.828923689115E+02   -0.53969E-03   -0.15838E-03  2769   0.177E-01    0.156E-01
RMM:   3    -0.828917766181E+02    0.59229E-03   -0.27382E-04  2253   0.936E-02    0.312E-02
RMM:   4    -0.828917985751E+02   -0.21957E-04   -0.84100E-05  1836   0.552E-02    0.225E-02
RMM:   5    -0.828917946481E+02    0.39270E-05   -0.45946E-05  1489   0.423E-02
  58 F= -.86012805E+02 E0= -.86014313E+02  d E =-.191176E-03
       N       E                     dE             d eps       ncg     rms          rms(c)
DAV:   1    -0.828926482092E+02   -0.84963E-03   -0.29596E-02  2000   0.761E-01    0.427E-02
RMM:   2    -0.828927734656E+02   -0.12526E-03   -0.10403E-03  2610   0.219E-01    0.538E-02
RMM:   3    -0.828927344644E+02    0.39001E-04   -0.19671E-04  1908   0.694E-02    0.325E-02
RMM:   4    -0.828927350931E+02   -0.62876E-06   -0.33094E-05  1478   0.470E-02
  59 F= -.86013242E+02 E0= -.86014804E+02  d E =-.436500E-03
       N       E                     dE             d eps       ncg     rms          rms(c)
DAV:   1    -0.828943768581E+02   -0.16424E-02   -0.26753E-01  2000   0.228E+00    0.135E-01
RMM:   2    -0.828954507375E+02   -0.10739E-02   -0.88115E-03  2540   0.684E-01    0.167E-01
RMM:   3    -0.828951401042E+02    0.31063E-03   -0.24472E-03  2624   0.235E-01    0.108E-01
RMM:   4    -0.828951386095E+02    0.14948E-05   -0.40781E-04  2483   0.942E-02    0.850E-02
RMM:   5    -0.828951468120E+02   -0.82026E-05   -0.33128E-04  2284   0.803E-02    0.402E-02
RMM:   6    -0.828951234484E+02    0.23364E-04   -0.56495E-05  1691   0.490E-02    0.268E-02
RMM:   7    -0.828951100678E+02    0.13381E-04   -0.28436E-05  1444   0.487E-02    0.144E-02
RMM:   8    -0.828951101072E+02   -0.39380E-07   -0.32723E-05  1447   0.304E-02
  60 F= -.86014109E+02 E0= -.86015756E+02  d E =-.130347E-02
       N       E                     dE             d eps       ncg     rms          rms(c)
DAV:   1    -0.828949949759E+02    0.11509E-03   -0.10711E+00  2000   0.456E+00    0.261E-01
RMM:   2    -0.828991851636E+02   -0.41902E-02   -0.34604E-02  2532   0.133E+00    0.331E-01
RMM:   3    -0.828981050635E+02    0.10801E-02   -0.94485E-03  2687   0.460E-01    0.204E-01
RMM:   4    -0.828981248538E+02   -0.19790E-04   -0.15827E-03  2761   0.179E-01    0.163E-01
RMM:   5    -0.828981544545E+02   -0.29601E-04   -0.11517E-03  2653   0.165E-01    0.814E-02
RMM:   6    -0.828980508437E+02    0.10361E-03   -0.28676E-04  2314   0.977E-02    0.508E-02
RMM:   7    -0.828980052989E+02    0.45545E-04   -0.10577E-04  1870   0.594E-02    0.246E-02
RMM:   8    -0.828980040961E+02    0.12028E-05   -0.69776E-05  1696   0.458E-02
  61 F= -.86014004E+02 E0= -.86015843E+02  d E =-.119871E-02
       N       E                     dE             d eps       ncg     rms          rms(c)
DAV:   1    -0.828956497838E+02    0.23555E-02   -0.35911E-01  2000   0.264E+00    0.150E-01
RMM:   2    -0.828969696465E+02   -0.13199E-02   -0.11386E-02  2540   0.758E-01    0.183E-01
RMM:   3    -0.828966655999E+02    0.30405E-03   -0.28340E-03  2659   0.252E-01    0.118E-01
RMM:   4    -0.828966554004E+02    0.10199E-04   -0.44894E-04  2525   0.103E-01    0.928E-02
RMM:   5    -0.828966648746E+02   -0.94741E-05   -0.36141E-04  2372   0.969E-02    0.427E-02
RMM:   6    -0.828966478639E+02    0.17011E-04   -0.72794E-05  1783   0.561E-02    0.270E-02
RMM:   7    -0.828966332957E+02    0.14568E-04   -0.29355E-05  1459   0.445E-02    0.141E-02
RMM:   8    -0.828966322229E+02    0.10729E-05   -0.28686E-05  1420   0.320E-02
  62 F= -.86014370E+02 E0= -.86016097E+02  d E =-.156475E-02
       N       E                     dE             d eps       ncg     rms          rms(c)
DAV:   1    -0.828975387411E+02   -0.90545E-03   -0.37007E-02  2064   0.824E-01    0.675E-02
RMM:   2    -0.828979739830E+02   -0.43524E-03   -0.15472E-03  2578   0.232E-01    0.137E-01
RMM:   3    -0.828975588528E+02    0.41513E-03   -0.30451E-04  2301   0.942E-02    0.321E-02
RMM:   4    -0.828975581050E+02    0.74781E-06   -0.81713E-05  1831   0.588E-02
  63 F= -.86014849E+02 E0= -.86016630E+02  d E =-.478861E-03
       N       E                     dE             d eps       ncg     rms          rms(c)
DAV:   1    -0.828985882517E+02   -0.10294E-02   -0.11836E-01  2000   0.147E+00    0.129E-01
RMM:   2    -0.829000142411E+02   -0.14260E-02   -0.44141E-03  2569   0.424E-01    0.251E-01
RMM:   3    -0.828986155138E+02    0.13987E-02   -0.11193E-03  2610   0.178E-01    0.608E-02
RMM:   4    -0.828986036599E+02    0.11854E-04   -0.33524E-04  2309   0.978E-02    0.431E-02
RMM:   5    -0.828985592398E+02    0.44420E-04   -0.11650E-04  1900   0.635E-02    0.215E-02
RMM:   6    -0.828985588640E+02    0.37577E-06   -0.61460E-05  1658   0.450E-02
  64 F= -.86015050E+02 E0= -.86016897E+02  d E =-.680045E-03
       N       E                     dE             d eps       ncg     rms          rms(c)
DAV:   1    -0.828989491179E+02   -0.38988E-03   -0.64116E-03  2320   0.353E-01    0.204E-02
RMM:   2    -0.828989771031E+02   -0.27985E-04   -0.17128E-04  1996   0.948E-02    0.286E-02
RMM:   3    -0.828989650954E+02    0.12008E-04   -0.55451E-05  1676   0.418E-02    0.129E-02
RMM:   4    -0.828989650972E+02   -0.18144E-08   -0.12952E-05  1286   0.331E-02
  65 F= -.86015258E+02 E0= -.86017110E+02  d E =-.207678E-03
       N       E                     dE             d eps       ncg     rms          rms(c)
DAV:   1    -0.829000985693E+02   -0.11335E-02   -0.58303E-02  2000   0.106E+00    0.616E-02
RMM:   2    -0.829003001735E+02   -0.20160E-03   -0.13694E-03  2406   0.285E-01    0.816E-02
RMM:   3    -0.829002314739E+02    0.68700E-04   -0.62332E-04  2516   0.112E-01    0.412E-02
RMM:   4    -0.829002131447E+02    0.18329E-04   -0.10147E-04  1874   0.559E-02    0.271E-02
RMM:   5    -0.829002101132E+02    0.30314E-05   -0.33757E-05  1563   0.423E-02
  66 F= -.86015908E+02 E0= -.86017782E+02  d E =-.857392E-03
       N       E                     dE             d eps       ncg     rms          rms(c)
DAV:   1    -0.829024236584E+02   -0.22105E-02   -0.23109E-01  2000   0.211E+00    0.121E-01
RMM:   2    -0.829032020039E+02   -0.77835E-03   -0.52859E-03  2431   0.570E-01    0.158E-01
RMM:   3    -0.829029576117E+02    0.24439E-03   -0.24916E-03  2821   0.223E-01    0.779E-02
RMM:   4    -0.829028822704E+02    0.75341E-04   -0.42337E-04  2444   0.946E-02    0.507E-02
RMM:   5    -0.829028636098E+02    0.18661E-04   -0.11779E-04  1924   0.563E-02    0.381E-02
RMM:   6    -0.829028549389E+02    0.86710E-05   -0.94460E-05  1776   0.532E-02
  67 F= -.86017364E+02 E0= -.86019319E+02  d E =-.231358E-02
       N       E                     dE             d eps       ncg     rms          rms(c)
DAV:   1    -0.829071711136E+02   -0.43075E-02   -0.93221E-01  2000   0.423E+00    0.246E-01
RMM:   2    -0.829105138322E+02   -0.33427E-02   -0.21489E-02  2432   0.111E+00    0.336E-01
RMM:   3    -0.829091969449E+02    0.13169E-02   -0.93119E-03  2837   0.431E-01    0.157E-01
RMM:   4    -0.829088791389E+02    0.31781E-03   -0.16481E-03  2726   0.187E-01    0.102E-01
RMM:   5    -0.829088032463E+02    0.75893E-04   -0.49752E-04  2456   0.103E-01    0.753E-02
RMM:   6    -0.829087552077E+02    0.48039E-04   -0.33393E-04  2335   0.896E-02    0.205E-02
RMM:   7    -0.829087575769E+02   -0.23692E-05   -0.72058E-05  1774   0.488E-02
  68 F= -.86020897E+02 E0= -.86022973E+02  d E =-.584725E-02
       N       E                     dE             d eps       ncg     rms          rms(c)
DAV:   1    -0.829165308480E+02   -0.77756E-02   -0.37258E+00  2000   0.848E+00    0.513E-01
RMM:   2    -0.829319584775E+02   -0.15428E-01   -0.87416E-02  2416   0.227E+00    0.746E-01
RMM:   3    -0.829243393616E+02    0.76191E-02   -0.40464E-02  2806   0.916E-01    0.317E-01
RMM:   4    -0.829230713526E+02    0.12680E-02   -0.67042E-03  2727   0.389E-01    0.209E-01
RMM:   5    -0.829227233372E+02    0.34802E-03   -0.19168E-03  2676   0.207E-01    0.153E-01
RMM:   6    -0.829225013486E+02    0.22199E-03   -0.13010E-03  2729   0.163E-01    0.421E-02
RMM:   7    -0.829225098845E+02   -0.85359E-05   -0.29258E-04  2287   0.944E-02    0.184E-02
RMM:   8    -0.829225228613E+02   -0.12977E-04   -0.89227E-05  1904   0.521E-02    0.120E-02
RMM:   9    -0.829225332248E+02   -0.10364E-04   -0.25627E-05  1465   0.339E-02    0.667E-03
RMM:  10    -0.829225463048E+02   -0.13080E-04   -0.11453E-05  1295   0.255E-02    0.273E-03
RMM:  11    -0.829225517530E+02   -0.54482E-05   -0.58146E-06  1250   0.214E-02
  69 F= -.86029985E+02 E0= -.86032359E+02  d E =-.149353E-01
       N       E                     dE             d eps       ncg     rms          rms(c)
DAV:   1    -0.829339234471E+02   -0.11377E-01   -0.14845E+01  2000   0.170E+01    0.112E+00
RMM:   2    -0.830183744959E+02   -0.84451E-01   -0.39549E-01  2425   0.453E+00    0.176E+00
RMM:   3    -0.829610517912E+02    0.57323E-01   -0.15460E-01  2753   0.184E+00    0.651E-01
RMM:   4    -0.829558414879E+02    0.52103E-02   -0.26816E-02  2690   0.819E-01    0.436E-01
RMM:   5    -0.829538630625E+02    0.19784E-02   -0.70209E-03  2639   0.429E-01    0.313E-01
RMM:   6    -0.829529057231E+02    0.95734E-03   -0.43443E-03  2767   0.297E-01    0.902E-02
RMM:   7    -0.829530225125E+02   -0.11679E-03   -0.10633E-03  2496   0.185E-01    0.412E-02
RMM:   8    -0.829530725562E+02   -0.50044E-04   -0.32806E-04  2508   0.891E-02    0.265E-02
RMM:   9    -0.829531424860E+02   -0.69930E-04   -0.94153E-05  1951   0.474E-02    0.117E-02
RMM:  10    -0.829532004820E+02   -0.57996E-04   -0.32980E-05  1556   0.407E-02    0.649E-03
RMM:  11    -0.829532205716E+02   -0.20090E-04   -0.12613E-05  1302   0.282E-02    0.398E-03
RMM:  12    -0.829532494123E+02   -0.28841E-04   -0.96425E-06  1268   0.237E-02    0.258E-03
RMM:  13    -0.829532899518E+02   -0.40539E-04   -0.14236E-05  1356   0.206E-02    0.213E-03
RMM:  14    -0.829533025614E+02   -0.12610E-04   -0.61945E-06  1272   0.199E-02    0.161E-03
RMM:  15    -0.829533206980E+02   -0.18137E-04   -0.94174E-06  1314   0.150E-02    0.198E-03
RMM:  16    -0.829533269024E+02   -0.62044E-05   -0.50403E-06  1254   0.162E-02
  70 F= -.86051474E+02 E0= -.86054495E+02  d E =-.364237E-01
       N       E                     dE             d eps       ncg     rms          rms(c)
DAV:   1    -0.829290705700E+02    0.24250E-01   -0.58580E+01  2000   0.343E+01    0.277E+00
RMM:   2    -0.834961470808E+02   -0.56708E+00   -0.18731E+00  2460   0.907E+00    0.429E+00
RMM:   3    -0.830268075445E+02    0.46934E+00   -0.73754E-01  2730   0.424E+00    0.148E+00
RMM:   4    -0.829868305434E+02    0.39977E-01   -0.12979E-01  2610   0.201E+00    0.992E-01
RMM:   5    -0.829773121222E+02    0.95184E-02   -0.32648E-02  2680   0.914E-01    0.736E-01
RMM:   6    -0.829745143674E+02    0.27978E-02   -0.16328E-02  2768   0.559E-01    0.309E-01
RMM:   7    -0.829751331625E+02   -0.61880E-03   -0.55398E-03  2614   0.386E-01    0.109E-01
RMM:   8    -0.829752621195E+02   -0.12896E-03   -0.14186E-03  2680   0.197E-01    0.564E-02
RMM:   9    -0.829756927092E+02   -0.43059E-03   -0.72023E-04  2706   0.903E-02    0.204E-02
RMM:  10    -0.829758724204E+02   -0.17971E-03   -0.16849E-04  2151   0.559E-02    0.128E-02
RMM:  11    -0.829760284435E+02   -0.15602E-03   -0.54019E-05  1659   0.430E-02    0.882E-03
RMM:  12    -0.829761583911E+02   -0.12995E-03   -0.40898E-05  1543   0.369E-02    0.437E-03
RMM:  13    -0.829762757122E+02   -0.11732E-03   -0.41428E-05  1566   0.312E-02    0.394E-03
RMM:  14    -0.829763437518E+02   -0.68040E-04   -0.25700E-05  1445   0.290E-02    0.298E-03
RMM:  15    -0.829763740546E+02   -0.30303E-04   -0.16687E-05  1365   0.248E-02    0.140E-03
RMM:  16    -0.829763885414E+02   -0.14487E-04   -0.11444E-05  1308   0.209E-02    0.905E-04
RMM:  17    -0.829763959822E+02   -0.74407E-05   -0.65796E-06  1239   0.176E-02
  71 F= -.86056447E+02 E0= -.86060029E+02  d E =-.413964E-01
       N       E                     dE             d eps       ncg     rms          rms(c)
DAV:   1    -0.829638181363E+02    0.12570E-01   -0.19376E+01  2000   0.202E+01    0.149E+00
RMM:   2    -0.831492665264E+02   -0.18545E+00   -0.68166E-01  2600   0.558E+00    0.311E+00
RMM:   3    -0.829881519063E+02    0.16111E+00   -0.20061E-01  2735   0.221E+00    0.767E-01
RMM:   4    -0.829812696150E+02    0.68823E-02   -0.38415E-02  2631   0.105E+00    0.495E-01
RMM:   5    -0.829753083976E+02    0.59612E-02   -0.89917E-03  2433   0.612E-01    0.285E-01
RMM:   6    -0.829743411419E+02    0.96726E-03   -0.10031E-02  2791   0.397E-01    0.102E-01
RMM:   7    -0.829743469326E+02   -0.57907E-05   -0.13535E-03  2426   0.233E-01    0.612E-02
RMM:   8    -0.829743742417E+02   -0.27309E-04   -0.57802E-04  2679   0.102E-01    0.390E-02
RMM:   9    -0.829744021350E+02   -0.27893E-04   -0.15413E-04  2093   0.638E-02    0.124E-02
RMM:  10    -0.829744408003E+02   -0.38665E-04   -0.56402E-05  1715   0.398E-02    0.739E-03
RMM:  11    -0.829744680610E+02   -0.27261E-04   -0.15538E-05  1295   0.327E-02    0.567E-03
RMM:  12    -0.829745208771E+02   -0.52816E-04   -0.14958E-05  1302   0.247E-02    0.335E-03
RMM:  13    -0.829745789584E+02   -0.58081E-04   -0.19770E-05  1396   0.257E-02    0.255E-03
RMM:  14    -0.829746073244E+02   -0.28366E-04   -0.10974E-05  1279   0.209E-02    0.182E-03
RMM:  15    -0.829746315135E+02   -0.24189E-04   -0.11765E-05  1327   0.178E-02    0.112E-03
RMM:  16    -0.829746398051E+02   -0.82916E-05   -0.60407E-06  1231   0.171E-02
  72 F= -.86064861E+02 E0= -.86068397E+02  d E =-.498113E-01
       N       E                     dE             d eps       ncg     rms          rms(c)
DAV:   1    -0.829789354069E+02   -0.43039E-02   -0.30778E+00  2000   0.793E+00    0.616E-01
RMM:   2    -0.830103311611E+02   -0.31396E-01   -0.93626E-02  2477   0.216E+00    0.116E+00
RMM:   3    -0.829816479248E+02    0.28683E-01   -0.34627E-02  2704   0.955E-01    0.308E-01
RMM:   4    -0.829807982882E+02    0.84964E-03   -0.62024E-03  2599   0.454E-01    0.202E-01
RMM:   5    -0.829800855998E+02    0.71269E-03   -0.15662E-03  2592   0.222E-01    0.131E-01
RMM:   6    -0.829799086781E+02    0.17692E-03   -0.10633E-03  2695   0.140E-01    0.454E-02
RMM:   7    -0.829799422963E+02   -0.33618E-04   -0.22044E-04  2275   0.816E-02    0.243E-02
RMM:   8    -0.829799537366E+02   -0.11440E-04   -0.47991E-05  1650   0.457E-02    0.148E-02
RMM:   9    -0.829799850943E+02   -0.31358E-04   -0.28375E-05  1458   0.321E-02    0.511E-03
RMM:  10    -0.829799975951E+02   -0.12501E-04   -0.94046E-06  1248   0.279E-02    0.259E-03
RMM:  11    -0.829800105429E+02   -0.12948E-04   -0.62492E-06  1231   0.179E-02    0.260E-03
RMM:  12    -0.829800281299E+02   -0.17587E-04   -0.47451E-06  1252   0.172E-02    0.142E-03
RMM:  13    -0.829800405975E+02   -0.12468E-04   -0.51081E-06  1242   0.137E-02    0.996E-04
RMM:  14    -0.829800478278E+02   -0.72303E-05   -0.36589E-06  1210   0.131E-02
  73 F= -.86066188E+02 E0= -.86069863E+02  d E =-.511376E-01
       N       E                     dE             d eps       ncg     rms          rms(c)
DAV:   1    -0.829790403052E+02    0.10003E-02   -0.21606E-01  2160   0.210E+00    0.160E-01
RMM:   2    -0.829812122780E+02   -0.21720E-02   -0.68740E-03  2560   0.571E-01    0.319E-01
RMM:   3    -0.829792320405E+02    0.19802E-02   -0.23349E-03  2718   0.244E-01    0.805E-02
RMM:   4    -0.829791964011E+02    0.35639E-04   -0.42250E-04  2391   0.120E-01    0.528E-02
RMM:   5    -0.829791411414E+02    0.55260E-04   -0.10003E-04  1922   0.657E-02    0.323E-02
RMM:   6    -0.829791348020E+02    0.63394E-05   -0.10355E-04  1772   0.507E-02    0.105E-02
RMM:   7    -0.829791376961E+02   -0.28941E-05   -0.18109E-05  1337   0.360E-02
  74 F= -.86066354E+02 E0= -.86070007E+02  d E =-.513036E-01
       N       E                     dE             d eps       ncg     rms          rms(c)
DAV:   1    -0.829793420652E+02   -0.20726E-03   -0.13429E-03  2400   0.168E-01    0.129E-02
RMM:   2    -0.829793524342E+02   -0.10369E-04   -0.42208E-05  1490   0.445E-02    0.192E-02
RMM:   3    -0.829793459033E+02    0.65308E-05   -0.12359E-05  1164   0.287E-02
  75 F= -.86066477E+02 E0= -.86070136E+02  d E =-.123473E-03
       N       E                     dE             d eps       ncg     rms          rms(c)
DAV:   1    -0.829799364902E+02   -0.58406E-03   -0.11988E-02  2192   0.499E-01    0.381E-02
RMM:   2    -0.829800362471E+02   -0.99757E-04   -0.40291E-04  2325   0.142E-01    0.686E-02
RMM:   3    -0.829799511310E+02    0.85116E-04   -0.13191E-04  1950   0.588E-02    0.211E-02
RMM:   4    -0.829799484360E+02    0.26950E-05   -0.23967E-05  1331   0.440E-02
  76 F= -.86066826E+02 E0= -.86070488E+02  d E =-.471892E-03
[...]
RMM:   3    -0.837465249918E+02   -0.11629E-01   -0.11712E-01  2779   0.133E+00    0.578E-01
RMM:   4    -0.837409974250E+02    0.55276E-02   -0.17042E-02  2747   0.583E-01    0.397E-01
RMM:   5    -0.837400389310E+02    0.95849E-03   -0.43318E-03  2672   0.364E-01    0.275E-01
RMM:   6    -0.837402533855E+02   -0.21445E-03   -0.56517E-03  2652   0.347E-01    0.183E-01
RMM:   7    -0.837395865566E+02    0.66683E-03   -0.94697E-04  2433   0.191E-01    0.533E-02
RMM:   8    -0.837395891335E+02   -0.25770E-05   -0.66265E-04  2512   0.112E-01    0.189E-02
RMM:   9    -0.837395876199E+02    0.15136E-05   -0.51516E-05  1728   0.368E-02
 132 F= -.86844540E+02 E0= -.86845746E+02  d E =-.154508E-01
       N       E                     dE             d eps       ncg     rms          rms(c)
DAV:   1    -0.837378692581E+02    0.17199E-02   -0.19742E+00  2000   0.640E+00    0.440E-01
RMM:   2    -0.837444526080E+02   -0.65833E-02   -0.88523E-02  2642   0.181E+00    0.277E-01
RMM:   3    -0.837459550319E+02   -0.15024E-02   -0.16556E-02  2788   0.568E-01    0.267E-01
RMM:   4    -0.837449043188E+02    0.10507E-02   -0.29651E-03  2747   0.248E-01    0.185E-01
RMM:   5    -0.837448254758E+02    0.78843E-04   -0.10941E-03  2672   0.174E-01    0.128E-01
RMM:   6    -0.837447717019E+02    0.53774E-04   -0.80109E-04  2535   0.153E-01    0.721E-02
RMM:   7    -0.837446814802E+02    0.90222E-04   -0.16185E-04  2095   0.867E-02    0.168E-02
RMM:   8    -0.837446863103E+02   -0.48301E-05   -0.86774E-05  1849   0.523E-02
 133 F= -.86846494E+02 E0= -.86847844E+02  d E =-.174044E-01
       N       E                     dE             d eps       ncg     rms          rms(c)
DAV:   1    -0.837400382212E+02    0.46433E-02   -0.13903E+00  2000   0.520E+00    0.377E-01
RMM:   2    -0.837448879694E+02   -0.48497E-02   -0.56497E-02  2704   0.145E+00    0.339E-01
RMM:   3    -0.837452913646E+02   -0.40340E-03   -0.14419E-02  2727   0.522E-01    0.274E-01
RMM:   4    -0.837441013564E+02    0.11900E-02   -0.20380E-03  2611   0.248E-01    0.186E-01
RMM:   5    -0.837440992580E+02    0.20983E-05   -0.16147E-03  2602   0.195E-01    0.116E-01
RMM:   6    -0.837440052840E+02    0.93974E-04   -0.66538E-04  2474   0.140E-01    0.604E-02
RMM:   7    -0.837439002816E+02    0.10500E-03   -0.19374E-04  2151   0.818E-02    0.200E-02
RMM:   8    -0.837439079250E+02   -0.76434E-05   -0.79888E-05  1773   0.481E-02
 134 F= -.86847878E+02 E0= -.86849110E+02  d E =-.138438E-02
       N       E                     dE             d eps       ncg     rms          rms(c)
DAV:   1    -0.837446407476E+02   -0.74047E-03   -0.15697E-01  2240   0.175E+00    0.127E-01
RMM:   2    -0.837452366278E+02   -0.59588E-03   -0.65164E-03  2735   0.483E-01    0.117E-01
RMM:   3    -0.837452265811E+02    0.10047E-04   -0.13885E-03  2623   0.167E-01    0.882E-02
RMM:   4    -0.837451020178E+02    0.12456E-03   -0.22056E-04  2197   0.878E-02    0.607E-02
RMM:   5    -0.837451091267E+02   -0.71089E-05   -0.16927E-04  2042   0.711E-02    0.394E-02
RMM:   6    -0.837450943901E+02    0.14737E-04   -0.70393E-05  1773   0.557E-02    0.184E-02
RMM:   7    -0.837450867826E+02    0.76074E-05   -0.18038E-05  1308   0.345E-02
 135 F= -.86848331E+02 E0= -.86849601E+02  d E =-.183707E-02
       N       E                     dE             d eps       ncg     rms          rms(c)
DAV:   1    -0.837440517862E+02    0.10426E-02   -0.68720E-01  2000   0.374E+00    0.228E-01
RMM:   2    -0.837463559766E+02   -0.23042E-02   -0.25583E-02  2639   0.103E+00    0.183E-01
RMM:   3    -0.837467964215E+02   -0.44044E-03   -0.67292E-03  2781   0.344E-01    0.156E-01
RMM:   4    -0.837464672869E+02    0.32913E-03   -0.99914E-04  2629   0.152E-01    0.110E-01
RMM:   5    -0.837464519520E+02    0.15335E-04   -0.33037E-04  2326   0.102E-01    0.806E-02
RMM:   6    -0.837464366846E+02    0.15267E-04   -0.35178E-04  2240   0.946E-02    0.423E-02
RMM:   7    -0.837464085981E+02    0.28086E-04   -0.48458E-05  1674   0.497E-02    0.130E-02
RMM:   8    -0.837464093170E+02   -0.71881E-06   -0.29061E-05  1451   0.384E-02
 136 F= -.86851176E+02 E0= -.86852411E+02  d E =-.284582E-02
       N       E                     dE             d eps       ncg     rms          rms(c)
DAV:   1    -0.837423195464E+02    0.40891E-02   -0.10894E+00  2000   0.470E+00    0.286E-01
RMM:   2    -0.837457966948E+02   -0.34771E-02   -0.38653E-02  2621   0.126E+00    0.226E-01
RMM:   3    -0.837465893232E+02   -0.79263E-03   -0.11342E-02  2782   0.434E-01    0.195E-01
RMM:   4    -0.837461026679E+02    0.48666E-03   -0.16679E-03  2693   0.191E-01    0.141E-01
RMM:   5    -0.837460696569E+02    0.33011E-04   -0.52055E-04  2488   0.128E-01    0.103E-01
RMM:   6    -0.837460542535E+02    0.15403E-04   -0.63055E-04  2384   0.120E-01    0.547E-02
RMM:   7    -0.837460040080E+02    0.50246E-04   -0.85421E-05  1857   0.614E-02    0.166E-02
RMM:   8    -0.837460055467E+02   -0.15388E-05   -0.50883E-05  1637   0.461E-02
 137 F= -.86852694E+02 E0= -.86853883E+02  d E =-.436322E-02
       N       E                     dE             d eps       ncg     rms          rms(c)
DAV:   1    -0.837456949004E+02    0.30911E-03   -0.74537E-01  2000   0.392E+00    0.275E-01
RMM:   2    -0.837479817114E+02   -0.22868E-02   -0.30968E-02  2672   0.106E+00    0.171E-01
RMM:   3    -0.837485507388E+02   -0.56903E-03   -0.64144E-03  2783   0.354E-01    0.165E-01
RMM:   4    -0.837480825286E+02    0.46821E-03   -0.11881E-03  2691   0.165E-01    0.106E-01
RMM:   5    -0.837480493879E+02    0.33141E-04   -0.32043E-04  2378   0.100E-01    0.795E-02
RMM:   6    -0.837480334554E+02    0.15932E-04   -0.27932E-04  2235   0.913E-02    0.426E-02
RMM:   7    -0.837480051613E+02    0.28294E-04   -0.48575E-05  1673   0.512E-02    0.100E-02
RMM:   8    -0.837480078646E+02   -0.27033E-05   -0.23919E-05  1412   0.417E-02
 138 F= -.86856528E+02 E0= -.86857707E+02  d E =-.383369E-02
       N       E                     dE             d eps       ncg     rms          rms(c)
DAV:   1    -0.837437909434E+02    0.42142E-02   -0.15542E+00  2000   0.567E+00    0.396E-01
RMM:   2    -0.837485067642E+02   -0.47158E-02   -0.63650E-02  2676   0.152E+00    0.249E-01
RMM:   3    -0.837496595141E+02   -0.11527E-02   -0.13114E-02  2785   0.508E-01    0.239E-01
RMM:   4    -0.837486659509E+02    0.99356E-03   -0.24225E-03  2721   0.238E-01    0.152E-01
RMM:   5    -0.837485965406E+02    0.69410E-04   -0.66670E-04  2588   0.144E-01    0.114E-01
RMM:   6    -0.837485491081E+02    0.47432E-04   -0.57242E-04  2440   0.128E-01    0.607E-02
RMM:   7    -0.837484891614E+02    0.59947E-04   -0.11241E-04  1963   0.693E-02    0.127E-02
RMM:   8    -0.837484940701E+02   -0.49087E-05   -0.45912E-05  1635   0.467E-02
 139 F= -.86859672E+02 E0= -.86860836E+02  d E =-.697823E-02
       N       E                     dE             d eps       ncg     rms          rms(c)
DAV:   1    -0.837226410143E+02    0.25848E-01   -0.62018E+00  2000   0.113E+01    0.795E-01
RMM:   2    -0.837414914183E+02   -0.18850E-01   -0.25127E-01  2695   0.303E+00    0.511E-01
RMM:   3    -0.837458706269E+02   -0.43792E-02   -0.51641E-02  2776   0.101E+00    0.488E-01
RMM:   4    -0.837415287983E+02    0.43418E-02   -0.96041E-03  2701   0.488E-01    0.302E-01
RMM:   5    -0.837412064960E+02    0.32230E-03   -0.26268E-03  2668   0.287E-01    0.224E-01
RMM:   6    -0.837410189882E+02    0.18751E-03   -0.24159E-03  2602   0.255E-01    0.121E-01
RMM:   7    -0.837407641540E+02    0.25483E-03   -0.51828E-04  2387   0.142E-01    0.219E-02
RMM:   8    -0.837407830056E+02   -0.18852E-04   -0.20089E-04  2197   0.698E-02    0.129E-02
RMM:   9    -0.837407848442E+02   -0.18386E-05   -0.29378E-05  1478   0.317E-02
 140 F= -.86857323E+02 E0= -.86858459E+02  d E =-.462870E-02
       N       E                     dE             d eps       ncg     rms          rms(c)
DAV:   1    -0.837368483749E+02    0.39346E-02   -0.31588E+00  2000   0.811E+00    0.569E-01
RMM:   2    -0.837471029095E+02   -0.10255E-01   -0.13945E-01  2635   0.225E+00    0.341E-01
RMM:   3    -0.837497139635E+02   -0.26111E-02   -0.27339E-02  2782   0.733E-01    0.344E-01
RMM:   4    -0.837478155059E+02    0.18985E-02   -0.46845E-03  2736   0.322E-01    0.223E-01
RMM:   5    -0.837477251412E+02    0.90365E-04   -0.13916E-03  2710   0.199E-01    0.168E-01
RMM:   6    -0.837476005643E+02    0.12458E-03   -0.10509E-03  2571   0.177E-01    0.880E-02
RMM:   7    -0.837474907146E+02    0.10985E-03   -0.22681E-04  2185   0.106E-01    0.174E-02
RMM:   8    -0.837474979212E+02   -0.72066E-05   -0.94420E-05  1934   0.528E-02
 141 F= -.86860196E+02 E0= -.86861351E+02  d E =-.750197E-02
       N       E                     dE             d eps       ncg     rms          rms(c)
DAV:   1    -0.837415546755E+02    0.59360E-02   -0.15766E+00  2000   0.562E+00    0.372E-01
RMM:   2    -0.837459920940E+02   -0.44374E-02   -0.63035E-02  2717   0.149E+00    0.240E-01
RMM:   3    -0.837469617119E+02   -0.96962E-03   -0.11110E-02  2742   0.469E-01    0.209E-01
RMM:   4    -0.837464004143E+02    0.56130E-03   -0.21434E-03  2684   0.238E-01    0.174E-01
RMM:   5    -0.837461788882E+02    0.22153E-03   -0.10336E-03  2659   0.129E-01    0.823E-02
RMM:   6    -0.837461569896E+02    0.21899E-04   -0.22590E-04  2284   0.938E-02    0.446E-02
RMM:   7    -0.837461291955E+02    0.27794E-04   -0.14235E-04  2103   0.740E-02    0.185E-02
RMM:   8    -0.837461262791E+02    0.29165E-05   -0.22024E-05  1343   0.376E-02
 142 F= -.86861504E+02 E0= -.86862671E+02  d E =-.130862E-02
       N       E                     dE             d eps       ncg     rms          rms(c)
DAV:   1    -0.837467505701E+02   -0.62137E-03   -0.14239E-01  2080   0.169E+00    0.110E-01
RMM:   2    -0.837471975996E+02   -0.44703E-03   -0.59817E-03  2735   0.454E-01    0.742E-02
RMM:   3    -0.837472913402E+02   -0.93741E-04   -0.96859E-04  2542   0.140E-01    0.655E-02
RMM:   4    -0.837472245608E+02    0.66779E-04   -0.19159E-04  2153   0.776E-02    0.518E-02
RMM:   5    -0.837472098819E+02    0.14679E-04   -0.10372E-04  1780   0.519E-02    0.238E-02
RMM:   6    -0.837472082703E+02    0.16116E-05   -0.14035E-05  1241   0.339E-02
 143 F= -.86861780E+02 E0= -.86862943E+02  d E =-.158392E-02
       N       E                     dE             d eps       ncg     rms          rms(c)
DAV:   1    -0.837443132966E+02    0.28966E-02   -0.94409E-01  2000   0.438E+00    0.289E-01
RMM:   2    -0.837485700262E+02   -0.42567E-02   -0.36772E-02  2651   0.117E+00    0.287E-01
RMM:   3    -0.837477561710E+02    0.81386E-03   -0.78930E-03  2779   0.408E-01    0.175E-01
RMM:   4    -0.837471711792E+02    0.58499E-03   -0.12834E-03  2630   0.196E-01    0.109E-01
RMM:   5    -0.837471149308E+02    0.56248E-04   -0.35246E-04  2371   0.108E-01    0.804E-02
RMM:   6    -0.837470913295E+02    0.23601E-04   -0.24255E-04  2281   0.790E-02    0.300E-02
RMM:   7    -0.837470854655E+02    0.58640E-05   -0.51656E-05  1678   0.526E-02
 144 F= -.86863778E+02 E0= -.86865004E+02  d E =-.199845E-02
       N       E                     dE             d eps       ncg     rms          rms(c)
DAV:   1    -0.837465924416E+02    0.49889E-03   -0.38585E-02  2160   0.889E-01    0.600E-02
RMM:   2    -0.837467612066E+02   -0.16876E-03   -0.14858E-03  2580   0.254E-01    0.556E-02
RMM:   3    -0.837467496794E+02    0.11527E-04   -0.41378E-04  2341   0.932E-02    0.370E-02
RMM:   4    -0.837467251139E+02    0.24566E-04   -0.56834E-05  1626   0.520E-02    0.224E-02
RMM:   5    -0.837467237915E+02    0.13224E-05   -0.16315E-05  1281   0.396E-02
 145 F= -.86863848E+02 E0= -.86865076E+02  d E =-.206789E-02
       N       E                     dE             d eps       ncg     rms          rms(c)
DAV:   1    -0.837467837944E+02   -0.58681E-04   -0.12160E-01  2000   0.160E+00    0.126E-01
RMM:   2    -0.837472783210E+02   -0.49453E-03   -0.55933E-03  2648   0.461E-01    0.103E-01
RMM:   3    -0.837472877697E+02   -0.94487E-05   -0.13403E-03  2739   0.168E-01    0.794E-02
RMM:   4    -0.837471330953E+02    0.15467E-03   -0.23280E-04  2291   0.835E-02    0.434E-02
RMM:   5    -0.837471225394E+02    0.10556E-04   -0.50560E-05  1661   0.531E-02    0.326E-02
RMM:   6    -0.837471222277E+02    0.31175E-06   -0.56881E-05  1632   0.467E-02
 146 F= -.86865096E+02 E0= -.86866365E+02  d E =-.124834E-02
       N       E                     dE             d eps       ncg     rms          rms(c)
DAV:   1    -0.837428061068E+02    0.43164E-02   -0.10568E+00  2000   0.471E+00    0.360E-01
RMM:   2    -0.837471695729E+02   -0.43635E-02   -0.47668E-02  2659   0.135E+00    0.298E-01
RMM:   3    -0.837471717554E+02   -0.21825E-05   -0.11166E-02  2781   0.484E-01    0.226E-01
RMM:   4    -0.837459237998E+02    0.12480E-02   -0.19256E-03  2683   0.237E-01    0.124E-01
RMM:   5    -0.837458288501E+02    0.94950E-04   -0.48790E-04  2482   0.131E-01    0.940E-02
RMM:   6    -0.837457875285E+02    0.41322E-04   -0.42008E-04  2452   0.108E-01    0.406E-02
RMM:   7    -0.837457655978E+02    0.21931E-04   -0.10602E-04  1953   0.640E-02    0.127E-02
RMM:   8    -0.837457672867E+02   -0.16889E-05   -0.27782E-05  1448   0.419E-02
 147 F= -.86866271E+02 E0= -.86867668E+02  d E =-.242299E-02
       N       E                     dE             d eps       ncg     rms          rms(c)
DAV:   1    -0.837456526131E+02    0.11298E-03   -0.43924E-02  2160   0.949E-01    0.664E-02
RMM:   2    -0.837458026485E+02   -0.15004E-03   -0.19969E-03  2713   0.273E-01    0.446E-02
RMM:   3    -0.837458494506E+02   -0.46802E-04   -0.38356E-04  2373   0.914E-02    0.430E-02
RMM:   4    -0.837458088822E+02    0.40568E-04   -0.74680E-05  1775   0.567E-02    0.293E-02
RMM:   5    -0.837458076698E+02    0.12124E-05   -0.31714E-05  1483   0.370E-02
 148 F= -.86866781E+02 E0= -.86868192E+02  d E =-.510080E-03
       N       E                     dE             d eps       ncg     rms          rms(c)
DAV:   1    -0.837447919355E+02    0.10169E-02   -0.14776E-01  2000   0.174E+00    0.129E-01
RMM:   2    -0.837452924811E+02   -0.50055E-03   -0.72649E-03  2730   0.512E-01    0.818E-02
RMM:   3    -0.837454380839E+02   -0.14560E-03   -0.13125E-03  2694   0.167E-01    0.782E-02
RMM:   4    -0.837453128464E+02    0.12524E-03   -0.27291E-04  2354   0.907E-02    0.560E-02
RMM:   5    -0.837452990811E+02    0.13765E-04   -0.12197E-04  1908   0.547E-02    0.276E-02
RMM:   6    -0.837452962730E+02    0.28081E-05   -0.17702E-05  1266   0.376E-02
 149 F= -.86867134E+02 E0= -.86868582E+02  d E =-.863384E-03
       N       E                     dE             d eps       ncg     rms          rms(c)
DAV:   1    -0.837455423585E+02   -0.24328E-03   -0.76680E-03  2384   0.389E-01    0.228E-02
RMM:   2    -0.837455686446E+02   -0.26286E-04   -0.30933E-04  2249   0.109E-01    0.164E-02
RMM:   3    -0.837455718778E+02   -0.32332E-05   -0.40769E-05  1459   0.388E-02
 150 F= -.86867504E+02 E0= -.86868953E+02  d E =-.369721E-03
       N       E                     dE             d eps       ncg     rms          rms(c)
DAV:   1    -0.837455932583E+02   -0.24614E-04   -0.66094E-02  2016   0.114E+00    0.717E-02
RMM:   2    -0.837457603048E+02   -0.16705E-03   -0.21528E-03  2638   0.309E-01    0.485E-02
RMM:   3    -0.837458120716E+02   -0.51767E-04   -0.63255E-04  2376   0.105E-01    0.353E-02
RMM:   4    -0.837458191097E+02   -0.70381E-05   -0.13369E-04  1944   0.691E-02    0.286E-02
RMM:   5    -0.837458131286E+02    0.59811E-05   -0.35643E-05  1519   0.463E-02
 151 F= -.86868023E+02 E0= -.86869491E+02  d E =-.888591E-03
       N       E                     dE             d eps       ncg     rms          rms(c)
DAV:   1    -0.837457770589E+02    0.42051E-04   -0.66829E-04  2616   0.120E-01    0.104E-02
RMM:   2    -0.837457809610E+02   -0.39021E-05   -0.33229E-05  1431   0.398E-02
 152 F= -.86868017E+02 E0= -.86869487E+02  d E =-.883122E-03
       N       E                     dE             d eps       ncg     rms          rms(c)
DAV:   1    -0.837459395671E+02   -0.16251E-03   -0.10702E-03  2192   0.153E-01    0.153E-02
RMM:   2    -0.837459436739E+02   -0.41067E-05   -0.48456E-05  1605   0.485E-02
 153 F= -.86868183E+02 E0= -.86869655E+02  d E =-.165486E-03
       N       E                     dE             d eps       ncg     rms          rms(c)
DAV:   1    -0.837463200360E+02   -0.38047E-03   -0.95461E-03  2000   0.444E-01    0.451E-02
RMM:   2    -0.837463620181E+02   -0.41982E-04   -0.50831E-04  2716   0.144E-01    0.325E-02
RMM:   3    -0.837463621373E+02   -0.11915E-06   -0.96975E-05  1915   0.473E-02
 154 F= -.86868610E+02 E0= -.86870098E+02  d E =-.592778E-03
       N       E                     dE             d eps       ncg     rms          rms(c)
DAV:   1    -0.837466903616E+02   -0.32834E-03   -0.37630E-02  2000   0.878E-01    0.894E-02
RMM:   2    -0.837468717629E+02   -0.18140E-03   -0.20334E-03  2716   0.286E-01    0.742E-02
RMM:   3    -0.837468447085E+02    0.27054E-04   -0.42457E-04  2552   0.972E-02    0.547E-02
RMM:   4    -0.837468375728E+02    0.71357E-05   -0.15013E-04  2022   0.622E-02    0.355E-02
RMM:   5    -0.837467961612E+02    0.41412E-04   -0.36840E-05  1553   0.537E-02    0.118E-02
RMM:   6    -0.837467971115E+02   -0.95033E-06   -0.19724E-05  1373   0.249E-02
 155 F= -.86869065E+02 E0= -.86870573E+02  d E =-.104742E-02
       N       E                     dE             d eps       ncg     rms          rms(c)
DAV:   1    -0.837468147644E+02   -0.18603E-04   -0.69649E-03  2160   0.379E-01    0.356E-02
RMM:   2    -0.837468739947E+02   -0.59230E-04   -0.39366E-04  2697   0.126E-01    0.381E-02
RMM:   3    -0.837468427397E+02    0.31255E-04   -0.70627E-05  1781   0.433E-02    0.189E-02
RMM:   4    -0.837468417778E+02    0.96194E-06   -0.18142E-05  1298   0.401E-02
 156 F= -.86869119E+02 E0= -.86870635E+02  d E =-.110145E-02
       N       E                     dE             d eps       ncg     rms          rms(c)
DAV:   1    -0.837469861014E+02   -0.14336E-03   -0.11551E-02  2064   0.477E-01    0.374E-02
RMM:   2    -0.837470725364E+02   -0.86435E-04   -0.65410E-04  2741   0.150E-01    0.556E-02
RMM:   3    -0.837470128686E+02    0.59668E-04   -0.91705E-05  1890   0.518E-02    0.237E-02
RMM:   4    -0.837470119235E+02    0.94514E-06   -0.20796E-05  1323   0.375E-02
 157 F= -.86869328E+02 E0= -.86870870E+02  d E =-.209552E-03
       N       E                     dE             d eps       ncg     rms          rms(c)
DAV:   1    -0.837470066121E+02    0.62565E-05   -0.22620E-03  2400   0.217E-01    0.246E-02
RMM:   2    -0.837470333219E+02   -0.26710E-04   -0.14559E-04  2221   0.697E-02    0.303E-02
RMM:   3    -0.837470100795E+02    0.23242E-04   -0.21398E-05  1290   0.343E-02    0.153E-02
RMM:   4    -0.837470099398E+02    0.13979E-06   -0.93334E-06  1211   0.302E-02
 158 F= -.86869344E+02 E0= -.86870892E+02  d E =-.225135E-03
       N       E                     dE             d eps       ncg     rms          rms(c)
DAV:   1    -0.837471397019E+02   -0.12962E-03   -0.10104E-02  2000   0.467E-01    0.349E-02
RMM:   2    -0.837471670020E+02   -0.27300E-04   -0.36354E-04  2517   0.138E-01    0.208E-02
RMM:   3    -0.837471841423E+02   -0.17140E-04   -0.11413E-04  1765   0.474E-02    0.212E-02
RMM:   4    -0.837471743184E+02    0.98239E-05   -0.19089E-05  1295   0.403E-02
 159 F= -.86869586E+02 E0= -.86871157E+02  d E =-.242552E-03
       N       E                     dE             d eps       ncg     rms          rms(c)
DAV:   1    -0.837470691522E+02    0.11499E-03   -0.54676E-02  2000   0.109E+00    0.841E-02
RMM:   2    -0.837472125998E+02   -0.14345E-03   -0.19115E-03  2641   0.308E-01    0.460E-02
RMM:   3    -0.837472834141E+02   -0.70814E-04   -0.53412E-04  2422   0.100E-01    0.437E-02
RMM:   4    -0.837472475668E+02    0.35847E-04   -0.97753E-05  1886   0.620E-02    0.268E-02
RMM:   5    -0.837472432140E+02    0.43528E-05   -0.37488E-05  1519   0.471E-02
 160 F= -.86869838E+02 E0= -.86871451E+02  d E =-.494767E-03
