       N       E                     dE             d eps       ncg     rms          rms(c)
DAV:   1     0.231951823223E+04    0.23195E+04   -0.93542E+04  5728   0.161E+03
DAV:   2     0.298361371357E+03   -0.20212E+04   -0.19653E+04  5688   0.465E+02
DAV:   3    -0.641388880371E+02   -0.36250E+03   -0.35087E+03  6352   0.203E+02
DAV:   4    -0.987000015655E+02   -0.34561E+02   -0.32804E+02  7024   0.572E+01
DAV:   5    -0.102161662998E+03   -0.34617E+01   -0.34275E+01  8992   0.127E+01    0.460E+01
DAV:   6    -0.107025481099E+03   -0.48638E+01   -0.11086E+02  9232   0.335E+01    0.320E+01
DAV:   7    -0.107268568769E+03   -0.24309E+00   -0.34901E+01  9048   0.257E+01    0.287E+01
DAV:   8    -0.982901390795E+02    0.89784E+01   -0.46376E+01  7864   0.250E+01    0.150E+01
DAV:   9    -0.962982576414E+02    0.19919E+01   -0.22826E+01  7040   0.117E+01    0.737E+00
DAV:  10    -0.959879337053E+02    0.31032E+00   -0.45123E+00  6656   0.536E+00    0.577E+00
DAV:  11    -0.960208795849E+02   -0.32946E-01   -0.69405E-01  6808   0.195E+00    0.484E+00
DAV:  12    -0.959610942029E+02    0.59785E-01   -0.97773E-02  7688   0.134E+00    0.302E+00
DAV:  13    -0.959236118198E+02    0.37482E-01   -0.14298E-01  7248   0.167E+00    0.130E+00
DAV:  14    -0.959204818571E+02    0.31300E-02   -0.33793E-02  6792   0.894E-01    0.104E+00
DAV:  15    -0.959173103161E+02    0.31715E-02   -0.81318E-03  6904   0.361E-01    0.477E-01
DAV:  16    -0.959151954546E+02    0.21149E-02   -0.11888E-02  7392   0.387E-01    0.219E-01
DAV:  17    -0.959152607862E+02   -0.65332E-04   -0.22264E-03  6600   0.223E-01    0.121E-01
DAV:  18    -0.959151734799E+02    0.87306E-04   -0.41282E-04  6792   0.719E-02    0.881E-02
DAV:  19    -0.959151766427E+02   -0.31629E-05   -0.15577E-04  5520   0.589E-02    0.118E-01
DAV:  20    -0.959153065931E+02   -0.12995E-03   -0.25391E-04  5656   0.727E-02    0.338E-02
DAV:  21    -0.959155940618E+02   -0.28747E-03   -0.17854E-04  5576   0.363E-02    0.437E-02
DAV:  22    -0.959158894607E+02   -0.29540E-03   -0.14752E-04  5136   0.408E-02    0.333E-02
DAV:  23    -0.959161105172E+02   -0.22106E-03   -0.29214E-05  4912   0.354E-02    0.180E-02
DAV:  24    -0.959162543807E+02   -0.14386E-03   -0.22171E-05  4864   0.169E-02    0.235E-02
DAV:  25    -0.959163895158E+02   -0.13514E-03   -0.84363E-06  4280   0.147E-02    0.873E-03
DAV:  26    -0.959164753081E+02   -0.85792E-04   -0.47015E-06  4040   0.687E-03    0.427E-03
DAV:  27    -0.959165066803E+02   -0.31372E-04   -0.21522E-06  3800   0.909E-03    0.245E-03
DAV:  28    -0.959165277702E+02   -0.21090E-04   -0.17276E-06  3832   0.389E-03    0.305E-03
DAV:  29    -0.959165303188E+02   -0.25486E-05   -0.36911E-07  3400   0.391E-03
   1 F= -.99002317E+02 E0= -.99002645E+02  d E =0.986166E-03
       N       E                     dE             d eps       ncg     rms          rms(c)
DAV:   1    -0.959146660849E+02    0.18617E-02   -0.13291E-01  5424   0.405E-01    0.143E-01
DAV:   2    -0.959146633502E+02    0.27347E-05   -0.16739E-03  5536   0.697E-02    0.804E-02
DAV:   3    -0.959146935391E+02   -0.30189E-04   -0.21983E-04  5016   0.107E-01    0.356E-02
DAV:   4    -0.959146947866E+02   -0.12476E-05   -0.17099E-04  5496   0.158E-01    0.290E-02
DAV:   5    -0.959146685964E+02    0.26190E-04   -0.49407E-05  4792   0.813E-02    0.781E-03
DAV:   6    -0.959146709962E+02   -0.23998E-05   -0.71413E-06  3904   0.120E-02
   2 F= -.99000516E+02 E0= -.99000852E+02  d E =0.100845E-02
       N       E                     dE             d eps       ncg     rms          rms(c)
DAV:   1    -0.959155158387E+02   -0.84724E-03   -0.53504E-01  5536   0.810E-01    0.286E-01
DAV:   2    -0.959155090101E+02    0.68286E-05   -0.64094E-03  5880   0.135E-01    0.161E-01
DAV:   3    -0.959156093100E+02   -0.10030E-03   -0.84845E-04  5408   0.200E-01    0.666E-02
DAV:   4    -0.959156477733E+02   -0.38463E-04   -0.64018E-04  5456   0.305E-01    0.573E-02
DAV:   5    -0.959155342124E+02    0.11356E-03   -0.20463E-04  5568   0.175E-01    0.153E-02
DAV:   6    -0.959155392978E+02   -0.50854E-05   -0.26411E-05  4944   0.218E-02
   3 F= -.99001269E+02 E0= -.99001591E+02  d E =0.965550E-03
       N       E                     dE             d eps       ncg     rms          rms(c)
DAV:   1    -0.959148523703E+02    0.68184E-03   -0.27878E-01  5552   0.583E-01    0.203E-01
DAV:   2    -0.959148283432E+02    0.24027E-04   -0.42614E-03  5840   0.115E-01    0.115E-01
DAV:   3    -0.959148834143E+02   -0.55071E-04   -0.57551E-04  5200   0.174E-01    0.601E-02
DAV:   4    -0.959148938152E+02   -0.10401E-04   -0.42871E-04  5504   0.258E-01    0.484E-02
DAV:   5    -0.959148214650E+02    0.72350E-04   -0.13739E-04  5192   0.132E-01    0.116E-02
DAV:   6    -0.959148242230E+02   -0.27580E-05   -0.20965E-05  4592   0.195E-02
   4 F= -.99000669E+02 E0= -.99000991E+02  d E =0.966990E-03
       N       E                     dE             d eps       ncg     rms          rms(c)
DAV:   1    -0.959156894725E+02   -0.86801E-03   -0.53011E-01  5488   0.808E-01    0.283E-01
DAV:   2    -0.959157262712E+02   -0.36799E-04   -0.60280E-03  5920   0.137E-01    0.160E-01
DAV:   3    -0.959158638966E+02   -0.13763E-03   -0.86430E-04  5384   0.229E-01    0.702E-02
DAV:   4    -0.959158339975E+02    0.29899E-04   -0.65910E-04  5408   0.310E-01    0.523E-02
DAV:   5    -0.959157476628E+02    0.86335E-04   -0.16349E-04  5432   0.151E-01    0.150E-02
DAV:   6    -0.959157528003E+02   -0.51375E-05   -0.26813E-05  4840   0.210E-02
   5 F= -.99001483E+02 E0= -.99001817E+02  d E =0.100447E-02
       N       E                     dE             d eps       ncg     rms          rms(c)
DAV:   1    -0.959130791764E+02    0.26685E-02   -0.29680E-01  5856   0.601E-01    0.283E-01
DAV:   2    -0.959124942164E+02    0.58496E-03   -0.69555E-03  6040   0.161E-01    0.152E-01
DAV:   3    -0.959125563045E+02   -0.62088E-04   -0.13141E-03  5536   0.273E-01    0.919E-02
DAV:   4    -0.959124835091E+02    0.72795E-04   -0.80834E-04  5360   0.360E-01    0.673E-02
DAV:   5    -0.959123679484E+02    0.11556E-03   -0.22775E-04  5488   0.157E-01    0.188E-02
DAV:   6    -0.959123702061E+02   -0.22577E-05   -0.43600E-05  4960   0.266E-02
   6 F= -.98997965E+02 E0= -.98998301E+02  d E =0.100823E-02
       N       E                     dE             d eps       ncg     rms          rms(c)
DAV:   1    -0.959122787961E+02    0.89152E-04   -0.60748E-01  5848   0.844E-01    0.394E-01
DAV:   2    -0.959110798879E+02    0.11989E-02   -0.13174E-02  6400   0.233E-01    0.214E-01
DAV:   3    -0.959112376289E+02   -0.15774E-03   -0.25800E-03  6240   0.393E-01    0.136E-01
DAV:   4    -0.959111088581E+02    0.12877E-03   -0.16491E-03  5792   0.499E-01    0.998E-02
DAV:   5    -0.959108637878E+02    0.24507E-03   -0.47056E-04  5664   0.241E-01    0.278E-02
DAV:   6    -0.959108690205E+02   -0.52327E-05   -0.92368E-05  5576   0.358E-02
   7 F= -.98996836E+02 E0= -.98997157E+02  d E =0.963589E-03
       N       E                     dE             d eps       ncg     rms          rms(c)
DAV:   1    -0.959084682209E+02    0.23956E-02   -0.15850E+00  6568   0.176E+00    0.378E-01
DAV:   2    -0.959097821490E+02   -0.13139E-02   -0.29146E-02  5984   0.266E-01    0.226E-01
DAV:   3    -0.959094642665E+02    0.31788E-03   -0.17732E-03  6400   0.977E-02    0.118E-01
DAV:   4    -0.959095095142E+02   -0.45248E-04   -0.39159E-04  5680   0.135E-01    0.540E-02
DAV:   5    -0.959095181678E+02   -0.86537E-05   -0.37493E-04  5472   0.227E-01    0.442E-02
DAV:   6    -0.959094629155E+02    0.55252E-04   -0.11383E-04  4984   0.116E-01    0.139E-02
DAV:   7    -0.959094664839E+02   -0.35684E-05   -0.15743E-05  4448   0.184E-02
   8 F= -.98995153E+02 E0= -.98995364E+02  d E =0.631510E-03
       N       E                     dE             d eps       ncg     rms          rms(c)
DAV:   1    -0.959042350227E+02    0.52279E-02   -0.63425E+00  6360   0.336E+00    0.688E-01
DAV:   2    -0.959098033952E+02   -0.55684E-02   -0.10271E-01  6280   0.621E-01    0.380E-01
DAV:   3    -0.959095852148E+02    0.21818E-03   -0.83630E-03  7488   0.590E-01    0.187E-01
DAV:   4    -0.959098934125E+02   -0.30820E-03   -0.51974E-03  7688   0.910E-01    0.168E-01
DAV:   5    -0.959089606961E+02    0.93272E-03   -0.17217E-03  7312   0.474E-01    0.528E-02
DAV:   6    -0.959089891715E+02   -0.28475E-04   -0.30977E-04  6208   0.618E-02    0.303E-02
DAV:   7    -0.959089903589E+02   -0.11875E-05   -0.48356E-05  5240   0.405E-02
   9 F= -.98994870E+02 E0= -.98995311E+02  d E =0.132318E-02
       N       E                     dE             d eps       ncg     rms          rms(c)
DAV:   1    -0.959044971347E+02    0.44920E-02   -0.32489E+00  6560   0.283E+00    0.611E-01
DAV:   2    -0.959107355646E+02   -0.62384E-02   -0.87475E-02  6544   0.554E-01    0.310E-01
DAV:   3    -0.959104875903E+02    0.24797E-03   -0.46967E-03  7568   0.440E-01    0.204E-01
DAV:   4    -0.959110391847E+02   -0.55159E-03   -0.32215E-03  6960   0.652E-01    0.182E-01
DAV:   5    -0.959100733585E+02    0.96583E-03   -0.16559E-03  5720   0.554E-01    0.362E-02
DAV:   6    -0.959100901772E+02   -0.16819E-04   -0.31492E-04  5960   0.546E-02    0.212E-02
DAV:   7    -0.959100938983E+02   -0.37211E-05   -0.38321E-05  5056   0.254E-02
  10 F= -.98995808E+02 E0= -.98996092E+02  d E =0.853049E-03
       N       E                     dE             d eps       ncg     rms          rms(c)
DAV:   1    -0.959055860494E+02    0.45041E-02   -0.63054E+00  6400   0.335E+00    0.672E-01
DAV:   2    -0.959107412168E+02   -0.51552E-02   -0.97406E-02  6312   0.616E-01    0.377E-01
DAV:   3    -0.959107275749E+02    0.13642E-04   -0.86343E-03  7376   0.665E-01    0.198E-01
DAV:   4    -0.959105815002E+02    0.14607E-03   -0.54981E-03  7480   0.986E-01    0.157E-01
DAV:   5    -0.959098266823E+02    0.75482E-03   -0.14737E-03  7272   0.433E-01    0.526E-02
DAV:   6    -0.959098516218E+02   -0.24939E-04   -0.27552E-04  6272   0.585E-02    0.288E-02
DAV:   7    -0.959098512518E+02    0.37000E-06   -0.43849E-05  5136   0.398E-02
  11 F= -.98995707E+02 E0= -.98996078E+02  d E =0.111537E-02
       N       E                     dE             d eps       ncg     rms          rms(c)
DAV:   1    -0.959042382368E+02    0.56134E-02   -0.31857E+00  6536   0.255E+00    0.738E-01
DAV:   2    -0.959077099159E+02   -0.34717E-02   -0.56864E-02  6080   0.388E-01    0.458E-01
DAV:   3    -0.959075866759E+02    0.12324E-03   -0.36958E-03  7000   0.179E-01    0.141E-01
DAV:   4    -0.959078468004E+02   -0.26012E-03   -0.10073E-03  6680   0.280E-01    0.738E-02
DAV:   5    -0.959076528953E+02    0.19391E-03   -0.49337E-04  5456   0.274E-01    0.337E-02
DAV:   6    -0.959076393464E+02    0.13549E-04   -0.57714E-05  4928   0.598E-02    0.155E-02
DAV:   7    -0.959076409767E+02   -0.16304E-05   -0.18809E-05  4472   0.149E-02
  12 F= -.98992972E+02 E0= -.98993293E+02  d E =0.965339E-03
       N       E                     dE             d eps       ncg     rms          rms(c)
DAV:   1    -0.959025024086E+02    0.51369E-02   -0.65454E+00  5600   0.355E+00    0.123E+00
DAV:   2    -0.959081145231E+02   -0.56121E-02   -0.94517E-02  6368   0.502E-01    0.785E-01
DAV:   3    -0.959086285448E+02   -0.51402E-03   -0.73847E-03  7224   0.442E-01    0.250E-01
DAV:   4    -0.959106512070E+02   -0.20227E-02   -0.62654E-03  7128   0.898E-01    0.218E-01
DAV:   5    -0.959084902708E+02    0.21609E-02   -0.31376E-03  5912   0.754E-01    0.521E-02
DAV:   6    -0.959084915441E+02   -0.12733E-05   -0.23067E-04  6112   0.612E-02    0.275E-02
DAV:   7    -0.959084941222E+02   -0.25781E-05   -0.38986E-05  5432   0.237E-02
  13 F= -.98994734E+02 E0= -.98995064E+02  d E =0.988989E-03
       N       E                     dE             d eps       ncg     rms          rms(c)
DAV:   1    -0.959063808978E+02    0.21106E-02   -0.31325E+00  6544   0.258E+00    0.690E-01
DAV:   2    -0.959092045852E+02   -0.28237E-02   -0.52435E-02  6272   0.469E-01    0.482E-01
DAV:   3    -0.959095574997E+02   -0.35291E-03   -0.57811E-03  7624   0.463E-01    0.191E-01
DAV:   4    -0.959109406648E+02   -0.13832E-02   -0.55499E-03  7672   0.965E-01    0.198E-01
DAV:   5    -0.959092023301E+02    0.17383E-02   -0.26526E-03  7280   0.607E-01    0.580E-02
DAV:   6    -0.959092228327E+02   -0.20503E-04   -0.24705E-04  6248   0.566E-02    0.265E-02
DAV:   7    -0.959092206817E+02    0.21510E-05   -0.27062E-05  5040   0.319E-02
  14 F= -.98995071E+02 E0= -.98995450E+02  d E =0.113845E-02
       N       E                     dE             d eps       ncg     rms          rms(c)
DAV:   1    -0.959036615742E+02    0.55613E-02   -0.57655E+00  6560   0.402E+00    0.881E-01
DAV:   2    -0.959113913116E+02   -0.77297E-02   -0.15638E-01  6376   0.665E-01    0.452E-01
DAV:   3    -0.959100665656E+02    0.13247E-02   -0.65587E-03  7152   0.346E-01    0.282E-01
DAV:   4    -0.959109150683E+02   -0.84850E-03   -0.31271E-03  6280   0.481E-01    0.165E-01
DAV:   5    -0.959107366522E+02    0.17842E-03   -0.29705E-03  5952   0.737E-01    0.111E-01
DAV:   6    -0.959104198356E+02    0.31682E-03   -0.68068E-04  5816   0.307E-01    0.302E-02
DAV:   7    -0.959104329441E+02   -0.13108E-04   -0.11654E-04  5784   0.520E-02    0.161E-02
DAV:   8    -0.959104404599E+02   -0.75159E-05   -0.21749E-05  4808   0.305E-02
  15 F= -.98996157E+02 E0= -.98996425E+02  d E =0.803921E-03
       N       E                     dE             d eps       ncg     rms          rms(c)
DAV:   1    -0.959076804448E+02    0.27525E-02   -0.31666E+00  6536   0.254E+00    0.579E-01
DAV:   2    -0.959108271536E+02   -0.31467E-02   -0.71924E-02  6456   0.549E-01    0.309E-01
DAV:   3    -0.959104502181E+02    0.37694E-03   -0.51927E-03  6824   0.390E-01    0.199E-01
DAV:   4    -0.959110640935E+02   -0.61388E-03   -0.29941E-03  7696   0.626E-01    0.169E-01
DAV:   5    -0.959103284489E+02    0.73564E-03   -0.16559E-03  6816   0.488E-01    0.635E-02
DAV:   6    -0.959103169945E+02    0.11454E-04   -0.34089E-04  6160   0.103E-01    0.287E-02
DAV:   7    -0.959103180888E+02   -0.10943E-05   -0.72705E-05  5712   0.260E-02
  16 F= -.98996146E+02 E0= -.98996503E+02  d E =0.107134E-02
       N       E                     dE             d eps       ncg     rms          rms(c)
DAV:   1    -0.959056427983E+02    0.46742E-02   -0.57260E+00  6544   0.387E+00    0.842E-01
DAV:   2    -0.959117408013E+02   -0.60980E-02   -0.13924E-01  6256   0.648E-01    0.451E-01
DAV:   3    -0.959105698522E+02    0.11709E-02   -0.60917E-03  7096   0.358E-01    0.272E-01
DAV:   4    -0.959114838026E+02   -0.91395E-03   -0.32509E-03  6408   0.520E-01    0.166E-01
DAV:   5    -0.959110515740E+02    0.43223E-03   -0.28466E-03  5976   0.738E-01    0.997E-02
DAV:   6    -0.959108162429E+02    0.23533E-03   -0.53415E-04  5832   0.266E-01    0.301E-02
DAV:   7    -0.959108279584E+02   -0.11716E-04   -0.10776E-04  5832   0.490E-02    0.157E-02
DAV:   8    -0.959108338657E+02   -0.59073E-05   -0.19609E-05  4672   0.293E-02
  17 F= -.98996575E+02 E0= -.98996868E+02  d E =0.876956E-03
       N       E                     dE             d eps       ncg     rms          rms(c)
DAV:   1    -0.959125083606E+02   -0.16804E-02   -0.30905E+00  6280   0.248E+00    0.574E-01
DAV:   2    -0.959148592774E+02   -0.23509E-02   -0.40665E-02  6424   0.412E-01    0.366E-01
DAV:   3    -0.959158439101E+02   -0.98463E-03   -0.46572E-03  7200   0.632E-01    0.208E-01
DAV:   4    -0.959158723069E+02   -0.28397E-04   -0.50502E-03  6048   0.969E-01    0.142E-01
DAV:   5    -0.959151407991E+02    0.73151E-03   -0.12095E-03  5664   0.400E-01    0.436E-02
DAV:   6    -0.959151580738E+02   -0.17275E-04   -0.14344E-04  6000   0.464E-02    0.215E-02
DAV:   7    -0.959151577455E+02    0.32829E-06   -0.25107E-05  4968   0.325E-02
  18 F= -.99000459E+02 E0= -.99000829E+02  d E =0.110941E-02
       N       E                     dE             d eps       ncg     rms          rms(c)
DAV:   1    -0.959059328285E+02    0.92252E-02   -0.66426E+00  5440   0.374E+00    0.985E-01
DAV:   2    -0.959126683614E+02   -0.67355E-02   -0.84269E-02  6600   0.526E-01    0.632E-01
DAV:   3    -0.959148727918E+02   -0.22044E-02   -0.78441E-03  7160   0.820E-01    0.316E-01
DAV:   4    -0.959171380705E+02   -0.22653E-02   -0.13051E-02  6912   0.138E+00    0.277E-01
DAV:   5    -0.959137732034E+02    0.33649E-02   -0.45211E-03  5984   0.865E-01    0.614E-02
DAV:   6    -0.959137959895E+02   -0.22786E-04   -0.30837E-04  6696   0.602E-02    0.419E-02
DAV:   7    -0.959137969190E+02   -0.92952E-06   -0.60367E-05  5488   0.371E-02
  19 F= -.99000064E+02 E0= -.99000340E+02  d E =0.828116E-03
