ESCALE ; pCOHP file generated by LOBSTER. Energy is shifted such that the Fermi level lies at 0 eV.
         4          1        401  -8.40381e+00   1.16463e+01   1.62125e+00 
Average
No.1:Ru44->N66(2.0228578768513179)
No.2:Hf10->N66(3.0338824440248513)
No.3:N65->N66(1.1947419102287364)
-10.02506   0.00000  -5.24752   0.00000  -1.89416   0.00000  -0.10667   0.00000 -13.74172
 -9.97494  -0.02208  -5.24862  -0.02897  -1.89561  -0.00079  -0.10671  -0.03647 -13.74355
 -9.92481  -0.00710  -5.24898  -0.00931  -1.89608  -0.00025  -0.10672  -0.01173 -13.74413
 -9.87469  -0.00201  -5.24908  -0.00264  -1.89621  -0.00007  -0.10673  -0.00333 -13.74430
 -9.82456  -0.00051  -5.24910  -0.00066  -1.89624  -0.00002  -0.10673  -0.00083 -13.74434
 -9.77444  -0.00011  -5.24911  -0.00015  -1.89625  -0.00000  -0.10673  -0.00018 -13.74435
 -9.72431  -0.00002  -5.24911  -0.00003  -1.89625  -0.00000  -0.10673  -0.00004 -13.74435
 -9.67419  -0.00000  -5.24911  -0.00000  -1.89625  -0.00000  -0.10673  -0.00001 -13.74435
 -9.62406  -0.00000  -5.24911  -0.00000  -1.89625  -0.00000  -0.10673  -0.00000 -13.74435
 -9.57393  -0.00000  -5.24911  -0.00000  -1.89625  -0.00000  -0.10673  -0.00000 -13.74435
 -9.52381  -0.00000  -5.24911  -0.00000  -1.89625  -0.00000  -0.10673  -0.00000 -13.74435
 -9.47368  -0.00000  -5.24911  -0.00000  -1.89625  -0.00000  -0.10673  -0.00000 -13.74435
 -9.42356  -0.00000  -5.24911  -0.00000  -1.89625  -0.00000  -0.10673  -0.00000 -13.74435
 -9.37343  -0.00000  -5.24911  -0.00000  -1.89625  -0.00000  -0.10673  -0.00000 -13.74435
 -9.32331  -0.00000  -5.24911  -0.00000  -1.89625  -0.00000  -0.10673  -0.00000 -13.74435
 -9.27318  -0.00000  -5.24911  -0.00000  -1.89625  -0.00000  -0.10673  -0.00000 -13.74435
 -9.22306  -0.00000  -5.24911  -0.00000  -1.89625  -0.00000  -0.10673  -0.00000 -13.74435
 -9.17293  -0.00000  -5.24911  -0.00000  -1.89625  -0.00000  -0.10673  -0.00000 -13.74435
 -9.12281  -0.00000  -5.24911  -0.00000  -1.89625  -0.00000  -0.10673  -0.00000 -13.74435
 -9.07268  -0.00000  -5.24911  -0.00000  -1.89625  -0.00000  -0.10673  -0.00000 -13.74435
 -9.02256  -0.00000  -5.24911  -0.00000  -1.89625  -0.00000  -0.10673  -0.00000 -13.74435
 -8.97243  -0.00000  -5.24911  -0.00000  -1.89625  -0.00000  -0.10673  -0.00000 -13.74435
 -8.92231  -0.00001  -5.24911  -0.00001  -1.89625  -0.00000  -0.10673  -0.00001 -13.74435
 -8.87218  -0.00002  -5.24911  -0.00002  -1.89625  -0.00000  -0.10673  -0.00005 -13.74436
 -8.82206  -0.00009  -5.24912  -0.00008  -1.89626  -0.00002  -0.10673  -0.00017 -13.74437
 -8.77193  -0.00029  -5.24913  -0.00028  -1.89627  -0.00006  -0.10673  -0.00055 -13.74439
 -8.72180  -0.00086  -5.24918  -0.00081  -1.89631  -0.00017  -0.10674  -0.00161 -13.74447
 -8.67168  -0.00226  -5.24929  -0.00211  -1.89642  -0.00046  -0.10676  -0.00422 -13.74468
 -8.62155  -0.00533  -5.24956  -0.00498  -1.89667  -0.00107  -0.10682  -0.00994 -13.74518
 -8.57143  -0.01134  -5.25012  -0.01059  -1.89720  -0.00225  -0.10693  -0.02118 -13.74624
 -8.52130  -0.02193  -5.25122  -0.02047  -1.89822  -0.00431  -0.10715  -0.04102 -13.74830
 -8.47118  -0.03882  -5.25317  -0.03619  -1.90004  -0.00753  -0.10752  -0.07272 -13.75195
 -8.42105  -0.06340  -5.25635  -0.05907  -1.90300  -0.01207  -0.10813  -0.11906 -13.75791
 -8.37093  -0.09665  -5.26119  -0.08996  -1.90751  -0.01795  -0.10903  -0.18204 -13.76704
 -8.32080  -0.13953  -5.26819  -0.12973  -1.91401  -0.02503  -0.11028  -0.26383 -13.78026
 -8.27068  -0.19431  -5.27793  -0.18040  -1.92305  -0.03325  -0.11195  -0.36928 -13.79877
 -8.22055  -0.26631  -5.29127  -0.24671  -1.93542  -0.04286  -0.11410  -0.50937 -13.82431
 -8.17043  -0.36520  -5.30958  -0.33723  -1.95232  -0.05463  -0.11684  -0.70375 -13.85958
 -8.12030  -0.50434  -5.33486  -0.46366  -1.97557  -0.06973  -0.12033  -0.97961 -13.90868
 -8.07018  -0.69708  -5.36980  -0.63747  -2.00752  -0.08926  -0.12481  -1.36450 -13.97708
 -8.02005  -0.94999  -5.41742  -0.86386  -2.05082  -0.11345  -0.13049  -1.87267 -14.07095
 -7.96992  -1.25417  -5.48029  -1.13422  -2.10767  -0.14082  -0.13755  -2.48748 -14.19563
 -7.91980  -1.57817  -5.55939  -1.42009  -2.17886  -0.16782  -0.14596  -3.14660 -14.35336
 -7.86967  -1.86802  -5.65303  -1.67343  -2.26274  -0.18919  -0.15545  -3.74145 -14.54090
 -7.81955  -2.05924  -5.75625  -1.83723  -2.35483  -0.19953  -0.16545  -4.14096 -14.74847
 -7.76942  -2.09953  -5.86149  -1.86559  -2.44834  -0.19529  -0.17524  -4.23771 -14.96088
 -7.71930  -1.97221  -5.96035  -1.74437  -2.53578  -0.17658  -0.18409  -3.99567 -15.16117
 -7.66917  -1.70596  -6.04586  -1.49979  -2.61096  -0.14735  -0.19147  -3.47073 -15.33514
 -7.61905  -1.36351  -6.11420  -1.18826  -2.67052  -0.11383  -0.19718  -2.78845 -15.47491
 -7.56892  -1.01584  -6.16512  -0.87313  -2.71428  -0.08226  -0.20130  -2.09214 -15.57978
 -7.51880  -0.71738  -6.20108  -0.60220  -2.74447  -0.05702  -0.20416  -1.49291 -15.65461
 -7.46867  -0.49526  -6.22591  -0.39752  -2.76440  -0.04021  -0.20618  -1.04805 -15.70715
 -7.41855  -0.35429  -6.24367  -0.25918  -2.77739  -0.03222  -0.20779  -0.77147 -15.74582
 -7.36842  -0.29044  -6.25822  -0.17641  -2.78623  -0.03288  -0.20944  -0.66202 -15.77900
 -7.31830  -0.30399  -6.27346  -0.13796  -2.79314  -0.04242  -0.21157  -0.73160 -15.81567
 -7.26817  -0.40705  -6.29386  -0.13751  -2.80004  -0.06216  -0.21468  -1.02147 -15.86687
 -7.21805  -0.62230  -6.32506  -0.17388  -2.80875  -0.09441  -0.21942  -1.59862 -15.94701
 -7.16792  -0.97146  -6.37375  -0.24757  -2.82116  -0.14096  -0.22648  -2.52586 -16.07362
 -7.11779  -1.45396  -6.44663  -0.35530  -2.83897  -0.20030  -0.23652  -3.80628 -16.26441
 -7.06767  -2.02442  -6.54811  -0.48473  -2.86327  -0.26492  -0.24980  -5.32362 -16.53125
 -7.01754  -2.58498  -6.67768  -0.61270  -2.89398  -0.32097  -0.26589  -6.82127 -16.87317
 -6.96742  -3.00674  -6.82840  -0.70977  -2.92956  -0.35228  -0.28355  -7.95818 -17.27208
 -6.91729  -3.17770  -6.98768  -0.75043  -2.96717  -0.34727  -0.30095  -8.43540 -17.69491
 -6.86717  -3.05267  -7.14069  -0.72387  -3.00346  -0.30507  -0.31625  -8.12907 -18.10238
 -6.81704  -2.67388  -7.27472  -0.63866  -3.03547  -0.23642  -0.32810  -7.14655 -18.46060
 -6.76692  -2.14861  -7.38242  -0.51815  -3.06144  -0.15879  -0.33606  -5.76890 -18.74977
 -6.71679  -1.59949  -7.46260  -0.38975  -3.08098  -0.08880  -0.34051  -4.31993 -18.96631
 -6.66667  -1.11865  -7.51867  -0.27480  -3.09475  -0.03652  -0.34234  -3.04464 -19.11892
 -6.61654  -0.74828  -7.55618  -0.18382  -3.10397  -0.00412  -0.34255  -2.05689 -19.22202
 -6.56642  -0.48834  -7.58066  -0.11792  -3.10988   0.01185  -0.34195  -1.35896 -19.29014
 -6.51629  -0.31712  -7.59655  -0.07306  -3.11354   0.01696  -0.34110  -0.89525 -19.33502
 -6.46617  -0.20953  -7.60706  -0.04434  -3.11576   0.01622  -0.34029  -0.60047 -19.36512
 -6.41604  -0.14690  -7.61442  -0.02864  -3.11720   0.01295  -0.33964  -0.42501 -19.38642
 -6.36591  -0.11925  -7.62040  -0.02624  -3.11851   0.00874  -0.33920  -0.34024 -19.40347
 -6.31579  -0.12393  -7.62661  -0.04204  -3.12062   0.00395  -0.33900  -0.33371 -19.42020
 -6.26566  -0.16316  -7.63479  -0.08633  -3.12495  -0.00171  -0.33909  -0.40146 -19.44032
 -6.21554  -0.24062  -7.64685  -0.17355  -3.13365  -0.00862  -0.33952  -0.53968 -19.46738
 -6.16541  -0.35655  -7.66472  -0.31672  -3.14952  -0.01680  -0.34036  -0.73613 -19.50427
 -6.11529  -0.50170  -7.68987  -0.51690  -3.17543  -0.02552  -0.34164  -0.96267 -19.55253
 -6.06516  -0.65294  -7.72260  -0.75224  -3.21314  -0.03318  -0.34331  -1.17341 -19.61135
 -6.01504  -0.77540  -7.76146  -0.97542  -3.26203  -0.03769  -0.34520  -1.31309 -19.67716
 -5.96491  -0.83336  -7.80324  -1.12660  -3.31851  -0.03744  -0.34707  -1.33605 -19.74413
 -5.91479  -0.80612  -7.84364  -1.15891  -3.37660  -0.03216  -0.34868  -1.22729 -19.80565
 -5.86466  -0.69912  -7.87869  -1.06194  -3.42983  -0.02331  -0.34985  -1.01210 -19.85639
 -5.81454  -0.54213  -7.90586  -0.86713  -3.47329  -0.01345  -0.35053  -0.74580 -19.89377
 -5.76441  -0.37518  -7.92467  -0.63133  -3.50494  -0.00505  -0.35078  -0.48915 -19.91829
 -5.71429  -0.23141  -7.93627  -0.41010  -3.52549   0.00046  -0.35076  -0.28457 -19.93255
 -5.66416  -0.12707  -7.94264  -0.23780  -3.53741   0.00302  -0.35061  -0.14643 -19.93989
 -5.61404  -0.06204  -7.94575  -0.12307  -3.54358   0.00345  -0.35043  -0.06648 -19.94322
 -5.56391  -0.02685  -7.94709  -0.05674  -3.54643   0.00280  -0.35029  -0.02661 -19.94456
 -5.51378  -0.01023  -7.94761  -0.02315  -3.54759   0.00187  -0.35020  -0.00942 -19.94503
 -5.46366  -0.00337  -7.94777  -0.00822  -3.54800   0.00109  -0.35014  -0.00297 -19.94518
 -5.41353  -0.00091  -7.94782  -0.00242  -3.54812   0.00056  -0.35012  -0.00086 -19.94522
 -5.36341  -0.00016  -7.94783  -0.00051  -3.54815   0.00026  -0.35010  -0.00024 -19.94523
 -5.31328   0.00001  -7.94783  -0.00001  -3.54815   0.00011  -0.35010  -0.00007 -19.94524
 -5.26316   0.00003  -7.94783   0.00007  -3.54814   0.00004  -0.35010  -0.00002 -19.94524
 -5.21303   0.00002  -7.94782   0.00005  -3.54814   0.00001  -0.35009  -0.00001 -19.94524
 -5.16291   0.00001  -7.94782   0.00003  -3.54814   0.00001  -0.35009  -0.00001 -19.94524
 -5.11278   0.00001  -7.94782   0.00003  -3.54814   0.00000  -0.35009  -0.00001 -19.94524
 -5.06266   0.00001  -7.94782   0.00007  -3.54813   0.00001  -0.35009  -0.00004 -19.94524
 -5.01253   0.00003  -7.94782   0.00017  -3.54813   0.00003  -0.35009  -0.00013 -19.94525
 -4.96241   0.00006  -7.94782   0.00040  -3.54811   0.00010  -0.35009  -0.00033 -19.94526
 -4.91228   0.00011  -7.94781   0.00086  -3.54806   0.00024  -0.35007  -0.00078 -19.94530
 -4.86216   0.00018  -7.94780   0.00166  -3.54798   0.00057  -0.35005  -0.00169 -19.94539
 -4.81203   0.00026  -7.94779   0.00295  -3.54783   0.00119  -0.34999  -0.00335 -19.94556
 -4.76190   0.00032  -7.94778   0.00485  -3.54759   0.00228  -0.34987  -0.00617 -19.94587
 -4.71178   0.00027  -7.94776   0.00740  -3.54722   0.00401  -0.34967  -0.01060 -19.94640
 -4.66165   0.00003  -7.94776   0.01057  -3.54669   0.00654  -0.34934  -0.01703 -19.94725
 -4.61153  -0.00052  -7.94779   0.01413  -3.54598   0.00989  -0.34885  -0.02557 -19.94853
 -4.56140  -0.00142  -7.94786   0.01769  -3.54509   0.01392  -0.34815  -0.03588 -19.95033
 -4.51128  -0.00266  -7.94799   0.02070  -3.54406   0.01830  -0.34723  -0.04699 -19.95269
 -4.46115  -0.00414  -7.94820   0.02257  -3.54292   0.02259  -0.34610  -0.05758 -19.95557
 -4.41103  -0.00568  -7.94848   0.02294  -3.54177   0.02641  -0.34478  -0.06639 -19.95890
 -4.36090  -0.00716  -7.94884   0.02181  -3.54068   0.02947  -0.34330  -0.07276 -19.96255
 -4.31078  -0.00846  -7.94927   0.01959  -3.53970   0.03167  -0.34171  -0.07665 -19.96639
 -4.26065  -0.00954  -7.94975   0.01685  -3.53885   0.03292  -0.34006  -0.07839 -19.97032
 -4.21053  -0.01033  -7.95026   0.01405  -3.53815   0.03312  -0.33840  -0.07815 -19.97424
 -4.16040  -0.01076  -7.95080   0.01142  -3.53758   0.03214  -0.33679  -0.07584 -19.97804
 -4.11028  -0.01082  -7.95134   0.00902  -3.53713   0.02996  -0.33529  -0.07143 -19.98162
 -4.06015  -0.01054  -7.95187   0.00693  -3.53678   0.02679  -0.33395  -0.06533 -19.98489
 -4.01003  -0.01006  -7.95238   0.00534  -3.53651   0.02304  -0.33279  -0.05857 -19.98783
 -3.95990  -0.00958  -7.95286   0.00448  -3.53629   0.01925  -0.33183  -0.05247 -19.99046
 -3.90977  -0.00924  -7.95332   0.00452  -3.53606   0.01593  -0.33103  -0.04816 -19.99287
 -3.85965  -0.00910  -7.95378   0.00548  -3.53578   0.01340  -0.33036  -0.04618 -19.99519
 -3.80952  -0.00912  -7.95423   0.00720  -3.53542   0.01179  -0.32977  -0.04635 -19.99751
 -3.75940  -0.00915  -7.95469   0.00939  -3.53495   0.01105  -0.32921  -0.04791 -19.99991
 -3.70927  -0.00903  -7.95515   0.01170  -3.53437   0.01101  -0.32866  -0.04981 -20.00241
 -3.65915  -0.00859  -7.95558   0.01385  -3.53367   0.01142  -0.32809  -0.05104 -20.00497
 -3.60902  -0.00773  -7.95596   0.01564  -3.53289   0.01203  -0.32748  -0.05085 -20.00752
 -3.55890  -0.00640  -7.95628   0.01697  -3.53204   0.01267  -0.32685  -0.04884 -20.00997
 -3.50877  -0.00465  -7.95652   0.01779  -3.53115   0.01319  -0.32619  -0.04491 -20.01222
 -3.45865  -0.00254  -7.95664   0.01804  -3.53024   0.01354  -0.32551  -0.03920 -20.01418
 -3.40852  -0.00018  -7.95665   0.01777  -3.52935   0.01374  -0.32482  -0.03204 -20.01579
 -3.35840   0.00234  -7.95654   0.01714  -3.52849   0.01386  -0.32413  -0.02399 -20.01699
 -3.30827   0.00496  -7.95629   0.01663  -3.52766   0.01400  -0.32342  -0.01576 -20.01778
 -3.25815   0.00771  -7.95590   0.01687  -3.52681   0.01422  -0.32271  -0.00797 -20.01818
 -3.20802   0.01066  -7.95537   0.01843  -3.52589   0.01453  -0.32198  -0.00097 -20.01823
 -3.15789   0.01389  -7.95467   0.02134  -3.52482   0.01494  -0.32123   0.00538 -20.01796
 -3.10777   0.01730  -7.95380   0.02476  -3.52358   0.01540  -0.32046   0.01174 -20.01737
 -3.05764   0.02065  -7.95277   0.02677  -3.52224   0.01589  -0.31967   0.01929 -20.01640
 -3.00752   0.02355  -7.95159   0.02462  -3.52100   0.01631  -0.31885   0.02972 -20.01491
 -2.95739   0.02568  -7.95030   0.01540  -3.52023   0.01645  -0.31802   0.04519 -20.01265
 -2.90727   0.02696  -7.94895  -0.00301  -3.52038   0.01602  -0.31722   0.06785 -20.00925
 -2.85714   0.02766  -7.94756  -0.03075  -3.52192   0.01470  -0.31648   0.09903 -20.00428
 -2.80702   0.02834  -7.94614  -0.06523  -3.52519   0.01231  -0.31587   0.13796 -19.99737
 -2.75689   0.02958  -7.94466  -0.10111  -3.53026   0.00893  -0.31542   0.18090 -19.98830
 -2.70677   0.03169  -7.94307  -0.13160  -3.53686   0.00497  -0.31517   0.22168 -19.97719
 -2.65664   0.03467  -7.94133  -0.15082  -3.54442   0.00106  -0.31512   0.25378 -19.96447
 -2.60652   0.03835  -7.93941  -0.15604  -3.55224  -0.00211  -0.31522   0.27319 -19.95077
 -2.55639   0.04251  -7.93728  -0.14858  -3.55968  -0.00401  -0.31542   0.28013 -19.93673
 -2.50627   0.04706  -7.93492  -0.13297  -3.56635  -0.00442  -0.31564   0.27858 -19.92277
 -2.45614   0.05194  -7.93232  -0.11494  -3.57211  -0.00353  -0.31582   0.27429 -19.90902
 -2.40602   0.05716  -7.92945  -0.09945  -3.57710  -0.00185  -0.31591   0.27278 -19.89535
 -2.35589   0.06286  -7.92630  -0.08931  -3.58157  -0.00005  -0.31592   0.27794 -19.88141
 -2.30576   0.06936  -7.92282  -0.08448  -3.58581   0.00131  -0.31585   0.29125 -19.86682
 -2.25564   0.07699  -7.91897  -0.08216  -3.58993   0.00194  -0.31575   0.31119 -19.85122
 -2.20551   0.08582  -7.91466  -0.07803  -3.59384   0.00183  -0.31566   0.33366 -19.83449
 -2.15539   0.09552  -7.90988  -0.06857  -3.59727   0.00116  -0.31560   0.35396 -19.81675
 -2.10526   0.10550  -7.90459  -0.05322  -3.59994   0.00006  -0.31560   0.36966 -19.79822
 -2.05514   0.11530  -7.89881  -0.03502  -3.60170  -0.00144  -0.31567   0.38237 -19.77905
 -2.00501   0.12479  -7.89255  -0.01910  -3.60266  -0.00337  -0.31584   0.39684 -19.75916
 -1.95489   0.13403  -7.88583  -0.01014  -3.60316  -0.00565  -0.31612   0.41786 -19.73822
 -1.90476   0.14297  -7.87867  -0.01057  -3.60369  -0.00798  -0.31652   0.44744 -19.71579
 -1.85464   0.15127  -7.87109  -0.02049  -3.60472  -0.00997  -0.31702   0.48429 -19.69151
 -1.80451   0.15849  -7.86314  -0.03879  -3.60667  -0.01134  -0.31759   0.52561 -19.66517
 -1.75439   0.16435  -7.85490  -0.06383  -3.60986  -0.01205  -0.31820   0.56893 -19.63665
 -1.70426   0.16887  -7.84644  -0.09321  -3.61454  -0.01230  -0.31881   0.61212 -19.60597
 -1.65414   0.17218  -7.83781  -0.12314  -3.62071  -0.01232  -0.31943   0.65202 -19.57328
 -1.60401   0.17435  -7.82907  -0.14863  -3.62816  -0.01215  -0.32004   0.68384 -19.53901
 -1.55388   0.17536  -7.82028  -0.16481  -3.63642  -0.01164  -0.32062   0.70255 -19.50379
 -1.50376   0.17540  -7.81149  -0.16851  -3.64487  -0.01062  -0.32116   0.70532 -19.46844
 -1.45363   0.17501  -7.80271  -0.15871  -3.65282  -0.00912  -0.32161   0.69287 -19.43371
 -1.40351   0.17510  -7.79394  -0.13614  -3.65965  -0.00747  -0.32199   0.66890 -19.40018
 -1.35338   0.17661  -7.78508  -0.10245  -3.66478  -0.00629  -0.32230   0.63858 -19.36817
 -1.30326   0.18040  -7.77604  -0.06023  -3.66780  -0.00629  -0.32262   0.60771 -19.33771
 -1.25313   0.18707  -7.76666  -0.01321  -3.66846  -0.00804  -0.32302   0.58246 -19.30851
 -1.20301   0.19693  -7.75679   0.03391  -3.66676  -0.01176  -0.32361   0.56866 -19.28001
 -1.15288   0.20983  -7.74628   0.07658  -3.66292  -0.01712  -0.32447   0.57003 -19.25143
 -1.10276   0.22503  -7.73500   0.11201  -3.65731  -0.02318  -0.32563   0.58626 -19.22205
 -1.05263   0.24135  -7.72290   0.14007  -3.65029  -0.02864  -0.32707   0.61263 -19.19134
 -1.00251   0.25755  -7.70999   0.16285  -3.64213  -0.03224  -0.32868   0.64203 -19.15916
 -0.95238   0.27263  -7.69632   0.18305  -3.63295  -0.03319  -0.33035   0.66803 -19.12567
 -0.90226   0.28595  -7.68199   0.20228  -3.62281  -0.03144  -0.33192   0.68702 -19.09123
 -0.85213   0.29697  -7.66710   0.22064  -3.61175  -0.02762  -0.33331   0.69790 -19.05625
 -0.80201   0.30494  -7.65182   0.23766  -3.59984  -0.02271  -0.33444   0.69987 -19.02117
 -0.75188   0.30887  -7.63634   0.25398  -3.58711  -0.01770  -0.33533   0.69033 -18.98657
 -0.70175   0.30789  -7.62090   0.27221  -3.57346  -0.01339  -0.33600   0.66485 -18.95324
 -0.65163   0.30191  -7.60577   0.29623  -3.55861  -0.01026  -0.33652   0.61978 -18.92218
 -0.60150   0.29214  -7.59113   0.32940  -3.54210  -0.00853  -0.33695   0.55556 -18.89433
 -0.55138   0.28089  -7.57705   0.37279  -3.52342  -0.00820  -0.33736   0.47809 -18.87036
 -0.50125   0.27076  -7.56347   0.42442  -3.50214  -0.00906  -0.33781   0.39691 -18.85047
 -0.45113   0.26350  -7.55027   0.47980  -3.47809  -0.01077  -0.33835   0.32147 -18.83435
 -0.40100   0.25937  -7.53727   0.53298  -3.45138  -0.01290  -0.33900   0.25802 -18.82142
 -0.35088   0.25712  -7.52438   0.57769  -3.42242  -0.01501  -0.33975   0.20869 -18.81096
 -0.30075   0.25472  -7.51161   0.60845  -3.39192  -0.01668  -0.34059   0.17239 -18.80232
 -0.25063   0.25011  -7.49907   0.62162  -3.36076  -0.01755  -0.34147   0.14626 -18.79499
 -0.20050   0.24202  -7.48694   0.61627  -3.32987  -0.01733  -0.34233   0.12711 -18.78862
 -0.15038   0.23033  -7.47540   0.59440  -3.30008  -0.01594  -0.34313   0.11253 -18.78298
 -0.10025   0.21617  -7.46456   0.56008  -3.27200  -0.01353  -0.34381   0.10197 -18.77787
 -0.05013   0.20154  -7.45446   0.51796  -3.24604  -0.01048  -0.34434   0.09713 -18.77300
  0.00000   0.18866  -7.44500   0.47214  -3.22237  -0.00730  -0.34470   0.10115 -18.76793
  0.05013   0.17930  -7.43601   0.42563  -3.20104  -0.00451  -0.34493   0.11677 -18.76207
  0.10025   0.17415  -7.42728   0.38050  -3.18197  -0.00246  -0.34505   0.14441 -18.75484
  0.15038   0.17287  -7.41862   0.33802  -3.16502  -0.00128  -0.34512   0.18186 -18.74572
  0.20050   0.17462  -7.40987   0.29903  -3.15003  -0.00088  -0.34516   0.22572 -18.73441
  0.25063   0.17904  -7.40089   0.26464  -3.13677  -0.00108  -0.34521   0.27355 -18.72069
  0.30075   0.18664  -7.39154   0.23674  -3.12490  -0.00173  -0.34530   0.32490 -18.70441
  0.35088   0.19840  -7.38159   0.21780  -3.11398  -0.00278  -0.34544   0.38019 -18.68535
  0.40100   0.21454  -7.37084   0.20971  -3.10347  -0.00428  -0.34565   0.43819 -18.66339
  0.45113   0.23345  -7.35914   0.21254  -3.09282  -0.00618  -0.34596   0.49400 -18.63863
  0.50125   0.25173  -7.34652   0.22425  -3.08158  -0.00829  -0.34638   0.53922 -18.61160
  0.55138   0.26515  -7.33323   0.24125  -3.06949  -0.01028  -0.34690   0.56448 -18.58330
  0.60150   0.27016  -7.31969   0.25929  -3.05649  -0.01186  -0.34749   0.56305 -18.55508
  0.65163   0.26502  -7.30640   0.27418  -3.04274  -0.01285  -0.34813   0.53372 -18.52833
  0.70175   0.25015  -7.29386   0.28226  -3.02860  -0.01330  -0.34880   0.48149 -18.50419
  0.75188   0.22793  -7.28244   0.28108  -3.01451  -0.01337  -0.34947   0.41606 -18.48334
  0.80201   0.20206  -7.27231   0.27030  -3.00096  -0.01323  -0.35013   0.34910 -18.46584
  0.85213   0.17687  -7.26344   0.25206  -2.98832  -0.01302  -0.35079   0.29156 -18.45122
  0.90226   0.15656  -7.25560   0.23053  -2.97677  -0.01281  -0.35143   0.25196 -18.43859
  0.95238   0.14456  -7.24835   0.21036  -2.96622  -0.01271  -0.35207   0.23603 -18.42676
  1.00251   0.14311  -7.24118   0.19502  -2.95645  -0.01288  -0.35271   0.24719 -18.41437
  1.05263   0.15324  -7.23350   0.18586  -2.94713  -0.01355  -0.35339   0.28741 -18.39997
  1.10276   0.17492  -7.22473   0.18235  -2.93799  -0.01502  -0.35414   0.35743 -18.38205
  1.15288   0.20709  -7.21435   0.18303  -2.92882  -0.01754  -0.35502   0.45579 -18.35920
  1.20301   0.24741  -7.20195   0.18629  -2.91948  -0.02115  -0.35608   0.57711 -18.33028
  1.25313   0.29212  -7.18730   0.19087  -2.90991  -0.02563  -0.35737   0.71111 -18.29463
  1.30326   0.33679  -7.17042   0.19613  -2.90008  -0.03049  -0.35890   0.84474 -18.25229
  1.35338   0.37842  -7.15145   0.20257  -2.88993  -0.03525  -0.36066   0.96795 -18.20377
  1.40351   0.41804  -7.13050   0.21266  -2.87927  -0.03976  -0.36266   1.08121 -18.14957
  1.45363   0.46228  -7.10733   0.23136  -2.86767  -0.04445  -0.36488   1.19992 -18.08943
  1.50376   0.52222  -7.08115   0.26537  -2.85437  -0.05023  -0.36740   1.35151 -18.02168
  1.55388   0.60864  -7.05064   0.32062  -2.83830  -0.05806  -0.37031   1.56337 -17.94332
  1.60401   0.72518  -7.01429   0.39847  -2.81833  -0.06829  -0.37373   1.84534 -17.85082
  1.65414   0.86269  -6.97105   0.49265  -2.79363  -0.07996  -0.37774   2.17537 -17.74178
  1.70426   0.99897  -6.92098   0.58923  -2.76410  -0.09073  -0.38229   2.49842 -17.61654
  1.75439   1.10544  -6.86557   0.67076  -2.73047  -0.09755  -0.38718   2.74312 -17.47904
  1.80451   1.15813  -6.80751   0.72262  -2.69425  -0.09797  -0.39209   2.84973 -17.33620
  1.85464   1.14725  -6.75001   0.73807  -2.65726  -0.09122  -0.39666   2.79490 -17.19610
  1.90476   1.08033  -6.69586   0.71935  -2.62120  -0.07847  -0.40060   2.60011 -17.06577
  1.95489   0.97821  -6.64682   0.67532  -2.58735  -0.06189  -0.40370   2.32121 -16.94942
  2.00501   0.86748  -6.60334   0.61802  -2.55637  -0.04342  -0.40587   2.02783 -16.84778
  2.05514   0.77370  -6.56456   0.56034  -2.52828  -0.02391  -0.40707   1.78467 -16.75832
  2.10526   0.71796  -6.52857   0.51487  -2.50247  -0.00321  -0.40723   1.64223 -16.67600
  2.15539   0.71614  -6.49267   0.49290  -2.47777   0.01927  -0.40627   1.63625 -16.59398
  2.20551   0.77894  -6.45363   0.50275  -2.45257   0.04391  -0.40407   1.79016 -16.50425
  2.25564   0.91088  -6.40797   0.54777  -2.42511   0.07066  -0.40053   2.11421 -16.39828
  2.30576   1.10760  -6.35245   0.62511  -2.39378   0.09893  -0.39557   2.59876 -16.26801
  2.35589   1.35273  -6.28465   0.72577  -2.35740   0.12766  -0.38917   3.20475 -16.10737
  2.40602   1.61656  -6.20361   0.83603  -2.31549   0.15544  -0.38138   3.85821 -15.91398
  2.45614   1.85863  -6.11045   0.93953  -2.26840   0.18067  -0.37232   4.45568 -15.69064
  2.50627   2.03514  -6.00844   1.01993  -2.21727   0.20205  -0.36219   4.88344 -15.44585
  2.55639   2.11025  -5.90266   1.06400  -2.16394   0.21909  -0.35121   5.04767 -15.19284
  2.60652   2.06765  -5.79902   1.06491  -2.11056   0.23233  -0.33956   4.90571 -14.94694
  2.65664   1.91715  -5.70292   1.02446  -2.05921   0.24296  -0.32739   4.48404 -14.72217
  2.70677   1.69186  -5.61812   0.95232  -2.01147   0.25176  -0.31477   3.87150 -14.52811
  2.75689   1.43608  -5.54613   0.86202  -1.96826   0.25830  -0.30182   3.18791 -14.36832
  2.80702   1.19003  -5.48648   0.76581  -1.92988   0.26095  -0.28874   2.54334 -14.24083
  2.85714   0.97933  -5.43739   0.67161  -1.89621   0.25795  -0.27581   2.00844 -14.14016
  2.90727   0.81318  -5.39663   0.58346  -1.86697   0.24897  -0.26333   1.60710 -14.05960
  2.95739   0.68919  -5.36209   0.50395  -1.84171   0.23589  -0.25150   1.32772 -13.99305
  3.00752   0.59970  -5.33203   0.43607  -1.81985   0.22211  -0.24037   1.14092 -13.93586
  3.05764   0.53600  -5.30516   0.38300  -1.80065   0.21078  -0.22981   1.01422 -13.88502
  3.10777   0.49029  -5.28058   0.34681  -1.78327   0.20310  -0.21963   0.92098 -13.83886
  3.15789   0.45650  -5.25770   0.32731  -1.76686   0.19786  -0.20971   0.84432 -13.79654
  3.20802   0.43065  -5.23611   0.32202  -1.75072   0.19255  -0.20006   0.77737 -13.75757
  3.25815   0.41081  -5.21552   0.32694  -1.73433   0.18503  -0.19078   0.72045 -13.72146
  3.30827   0.39649  -5.19565   0.33772  -1.71740   0.17479  -0.18202   0.67695 -13.68752
  3.35840   0.38783  -5.17621   0.35071  -1.69982   0.16307  -0.17385   0.64973 -13.65496
  3.40852   0.38487  -5.15692   0.36355  -1.68160   0.15202  -0.16623   0.63903 -13.62293
  3.45865   0.38681  -5.13753   0.37513  -1.66280   0.14362  -0.15903   0.64169 -13.59076
  3.50877   0.39177  -5.11789   0.38500  -1.64350   0.13892  -0.15206   0.65139 -13.55811
  3.55890   0.39692  -5.09799   0.39259  -1.62382   0.13776  -0.14516   0.66041 -13.52501
  3.60902   0.39944  -5.07797   0.39684  -1.60393   0.13899  -0.13819   0.66249 -13.49180
  3.65915   0.39758  -5.05804   0.39625  -1.58407   0.14102  -0.13112   0.65549 -13.45894
  3.70927   0.39128  -5.03843   0.38973  -1.56453   0.14231  -0.12399   0.64180 -13.42677
  3.75940   0.38204  -5.01928   0.37781  -1.54559   0.14191  -0.11688   0.62639 -13.39537
  3.80952   0.37247  -5.00061   0.36350  -1.52737   0.13964  -0.10988   0.61426 -13.36458
  3.85965   0.36592  -4.98227   0.35208  -1.50972   0.13616  -0.10305   0.60951 -13.33403
  3.90977   0.36609  -4.96392   0.34928  -1.49222   0.13264  -0.09640   0.61635 -13.30314
  3.95990   0.37626  -4.94506   0.35848  -1.47425   0.13018  -0.08988   0.64012 -13.27105
  4.01003   0.39806  -4.92511   0.37834  -1.45528   0.12926  -0.08340   0.68658 -13.23664
  4.06015   0.43034  -4.90353   0.40249  -1.43511   0.12941  -0.07691   0.75911 -13.19859
  4.11028   0.46903  -4.88002   0.42183  -1.41396   0.12927  -0.07043   0.85598 -13.15568
  4.16040   0.50834  -4.85454   0.42855  -1.39248   0.12711  -0.06406   0.96936 -13.10709
  4.21053   0.54276  -4.82734   0.41962  -1.37145   0.12154  -0.05797   1.08711 -13.05260
  4.26065   0.56887  -4.79882   0.39808  -1.35149   0.11216  -0.05235   1.19636 -12.99263
  4.31078   0.58636  -4.76943   0.37161  -1.33287   0.09983  -0.04734   1.28764 -12.92809
  4.36090   0.59776  -4.73947   0.34911  -1.31537   0.08640  -0.04301   1.35777 -12.86003
  4.41103   0.60709  -4.70904   0.33708  -1.29847   0.07404  -0.03930   1.41014 -12.78934
  4.46115   0.61796  -4.67806   0.33729  -1.28156   0.06445  -0.03607   1.45215 -12.71655
  4.51128   0.63213  -4.64638   0.34655  -1.26419   0.05827  -0.03315   1.49157 -12.64179
  4.56140   0.64942  -4.61382   0.35873  -1.24621   0.05504  -0.03039   1.53448 -12.56487
  4.61153   0.66891  -4.58030   0.36784  -1.22777   0.05357  -0.02770   1.58531 -12.48541
  4.66165   0.69000  -4.54571   0.37046  -1.20920   0.05256  -0.02507   1.64696 -12.40285
  4.71178   0.71225  -4.51001   0.36652  -1.19083   0.05106  -0.02251   1.71915 -12.31668
  4.76190   0.73452  -4.47319   0.35854  -1.17286   0.04866  -0.02007   1.79636 -12.22664
  4.81203   0.75479  -4.43536   0.35039  -1.15530   0.04535  -0.01780   1.86862 -12.13297
  4.86216   0.77126  -4.39670   0.34645  -1.13793   0.04128  -0.01573   1.92604 -12.03643
  4.91228   0.78372  -4.35741   0.35079  -1.12035   0.03657  -0.01390   1.96380 -11.93799
  4.96241   0.79358  -4.31763   0.36611  -1.10200   0.03135  -0.01232   1.98329 -11.83858
  5.01253   0.80227  -4.27742   0.39261  -1.08232   0.02580  -0.01103   1.98839 -11.73891
  5.06266   0.80958  -4.23684   0.42753  -1.06089   0.02026  -0.01002   1.98096 -11.63962
  5.11278   0.81392  -4.19604   0.46604  -1.03753   0.01525  -0.00925   1.96048 -11.54135
  5.16291   0.81443  -4.15522   0.50283  -1.01232   0.01129  -0.00868   1.92916 -11.44465
  5.21303   0.81347  -4.11444   0.53377  -0.98557   0.00880  -0.00824   1.89784 -11.34952
  5.26316   0.81714  -4.07348   0.55687  -0.95765   0.00791  -0.00785   1.88664 -11.25495
  5.31328   0.83303  -4.03173   0.57242  -0.92896   0.00840  -0.00743   1.91826 -11.15879
  5.36341   0.86671  -3.98828   0.58239  -0.89977   0.00978  -0.00694   2.00796 -11.05814
  5.41353   0.91888  -3.94222   0.58890  -0.87025   0.01139  -0.00637   2.15636 -10.95006
  5.46366   0.98451  -3.89287   0.59239  -0.84056   0.01264  -0.00573   2.34848 -10.83234
  5.51378   1.05392  -3.84005   0.59066  -0.81095   0.01322  -0.00507   2.55787 -10.70412
  5.56391   1.11518  -3.78415   0.57971  -0.78189   0.01317  -0.00441   2.75267 -10.56615
  5.61404   1.15721  -3.72614   0.55639  -0.75400   0.01273  -0.00377   2.90252 -10.42066
  5.66416   1.17330  -3.66733   0.52103  -0.72788   0.01216  -0.00316   2.98672 -10.27095
  5.71429   1.16438  -3.60897   0.47825  -0.70391   0.01163  -0.00258   3.00326 -10.12041
  5.76441   1.14037  -3.55180   0.43534  -0.68209   0.01125  -0.00201   2.97453  -9.97131
  5.81454   1.11806  -3.49576   0.39924  -0.66208   0.01118  -0.00145   2.94376  -9.82375
  5.86466   1.11525  -3.43986   0.37415  -0.64332   0.01168  -0.00087   2.95992  -9.67538
  5.91479   1.14342  -3.38254   0.36059  -0.62525   0.01291  -0.00022   3.05677  -9.52216
  5.96491   1.20226  -3.32228   0.35600  -0.60741   0.01479   0.00052   3.23598  -9.35996
  6.01504   1.27911  -3.25816   0.35615  -0.58955   0.01697   0.00137   3.46422  -9.18631
  6.06516   1.35431  -3.19028   0.35660  -0.57168   0.01894   0.00232   3.68741  -9.00148
  6.11529   1.41079  -3.11956   0.35392  -0.55394   0.02021   0.00333   3.85825  -8.80808
  6.16541   1.44397  -3.04718   0.34653  -0.53657   0.02040   0.00436   3.96500  -8.60934
  6.21554   1.46650  -2.97367   0.33489  -0.51978   0.01934   0.00533   4.04526  -8.40657
  6.26566   1.50385  -2.89829   0.32148  -0.50367   0.01711   0.00618   4.17296  -8.19740
  6.31579   1.58163  -2.81901   0.31020  -0.48812   0.01408   0.00689   4.42060  -7.97581
  6.36591   1.71079  -2.73326   0.30564  -0.47280   0.01081   0.00743   4.81591  -7.73441
  6.41604   1.87954  -2.63905   0.31183  -0.45717   0.00786   0.00783   5.31892  -7.46780
  6.46617   2.05727  -2.53593   0.33059  -0.44060   0.00556   0.00810   5.83566  -7.17529