  66   66    1    1
  2.5162063e+03   9.0385280e-10   1.2782408e-09   2.1778896e-09   5.0000000e-16
            1.000000e-04
  CAR
 DOS and projected DOS file by LOBSTER. Energy is shifted such that the Fermi level lies at 0 eV. 
     11.64631230      -8.40381302   401       1.62124964       1.00000000
 -10.02506    0.00000  451.99603
  -9.97494    0.05497  451.99878
  -9.92481    0.01767  451.99967
  -9.87469    0.00502  451.99992
  -9.82456    0.00126  451.99998
  -9.77444    0.00028  452.00000
  -9.72431    0.00005  452.00000
  -9.67419    0.00001  452.00000
  -9.62406    0.00000  452.00000
  -9.57393    0.00000  452.00000
  -9.52381    0.00000  452.00000
  -9.47368    0.00000  452.00000
  -9.42356    0.00000  452.00000
  -9.37343    0.00000  452.00000
  -9.32331    0.00000  452.00000
  -9.27318    0.00000  452.00000
  -9.22306    0.00000  452.00000
  -9.17293    0.00000  452.00000
  -9.12281    0.00000  452.00000
  -9.07268    0.00000  452.00000
  -9.02256    0.00001  452.00000
  -8.97243    0.00004  452.00000
  -8.92231    0.00017  452.00001
  -8.87218    0.00070  452.00005
  -8.82206    0.00255  452.00017
  -8.77193    0.00828  452.00059
  -8.72180    0.02391  452.00179
  -8.67168    0.06159  452.00487
  -8.62155    0.14190  452.01199
  -8.57143    0.29348  452.02670
  -8.52130    0.54720  452.05413
  -8.47118    0.92436  452.10046
  -8.42105    1.42295  452.17179
  -8.37093    2.00966  452.27252
  -8.32080    2.62562  452.40413
  -8.27068    3.20758  452.56491
  -8.22055    3.71656  452.75121
  -8.17043    4.15855  452.95965
  -8.12030    4.58303  453.18938
  -8.07018    5.05684  453.44286
  -8.02005    5.62653  453.72489
  -7.96992    6.28881  454.04012
  -7.91980    6.98203  454.39009
  -7.86967    7.60112  454.77110
  -7.81955    8.03217  455.17372
  -7.76942    8.19694  455.58459
  -7.71930    8.08795  455.99000
  -7.66917    7.77052  456.37950
  -7.61905    7.34598  456.74772
  -7.56892    6.90200  457.09368
  -7.51880    6.49039  457.41902
  -7.46867    6.14808  457.72719
  -7.41855    5.93541  458.02471
  -7.36842    5.95065  458.32299
  -7.31830    6.30496  458.63902
  -7.26817    7.07935  458.99388
  -7.21805    8.29431  459.40963
  -7.16792    9.90040  459.90589
  -7.11779   11.77785  460.49626
  -7.06767   13.73927  461.18495
  -7.01754   15.54942  461.96437
  -6.96742   16.97856  462.81542
  -6.91729   17.88114  463.71172
  -6.86717   18.26143  464.62708
  -6.81704   18.28071  465.54341
  -6.76692   18.18843  466.45511
  -6.71679   18.20449  467.36761
  -6.66667   18.41465  468.29065
  -6.61654   18.73987  469.23000
  -6.56642   19.00154  470.18245
  -6.51629   19.04849  471.13727
  -6.46617   18.87379  472.08332
  -6.41604   18.65515  473.01842
  -6.36591   18.69776  473.95565
  -6.31579   19.30824  474.92348
  -6.26566   20.65373  475.95875
  -6.21554   22.66050  477.09462
  -6.16541   24.99440  478.34747
  -6.11529   27.14021  479.70788
  -6.06516   28.55476  481.13920
  -6.01504   28.82983  482.58430
  -5.96491   27.79938  483.97775
  -5.91479   25.56144  485.25903
  -5.86466   22.42461  486.38307
  -5.81454   18.80869  487.32586
  -5.76441   15.13241  488.08438
  -5.71429   11.72226  488.67196
  -5.66416    8.76902  489.11151
  -5.61404    6.33766  489.42919
  -5.56391    4.41064  489.65027
  -5.51378    2.93433  489.79736
  -5.46366    1.84727  489.88995
  -5.41353    1.08797  489.94449
  -5.36341    0.59286  489.97420
  -5.31328    0.29603  489.98904
  -5.26316    0.13459  489.99579
  -5.21303    0.05637  489.99861
  -5.16291    0.02542  489.99989
  -5.11278    0.02400  490.00109
  -5.06266    0.05391  490.00379
  -5.01253    0.14079  490.01085
  -4.96241    0.34283  490.02803
  -4.91228    0.76098  490.06618
  -4.86216    1.54361  490.14355
  -4.81203    2.87747  490.28779
  -4.76190    4.96002  490.53641
  -4.71178    7.95390  490.93510
  -4.66165   11.92744  491.53297
  -4.61153   16.78894  492.37452
  -4.56140   22.23509  493.48906
  -4.51128   27.75348  494.88021
  -4.46115   32.71786  496.52020
  -4.41103   36.56422  498.35300
  -4.36090   38.96166  500.30596
  -4.31078   39.87220  502.30457
  -4.26065   39.47068  504.28305
  -4.21053   38.00752  506.18819
  -4.16040   35.72911  507.97912
  -4.11028   32.89275  509.62788
  -4.06015   29.81225  511.12223
  -4.01003   26.85068  512.46813
  -3.95990   24.34401  513.68838
  -3.90977   22.51583  514.81699
  -3.85965   21.45267  515.89231
  -3.80952   21.15417  516.95267
  -3.75940   21.61019  518.03589
  -3.70927   22.84264  519.18088
  -3.65915   24.88775  520.42839
  -3.60902   27.74524  521.81913
  -3.55890   31.34249  523.39018
  -3.50877   35.54066  525.17167
  -3.45865   40.16501  527.18495
  -3.40852   45.01497  529.44134
  -3.35840   49.83532  531.93935
  -3.30827   54.29086  534.66070
  -3.25815   58.01747  537.56884
  -3.20802   60.77271  540.61509
  -3.15789   62.61202  543.75354
  -3.10777   63.95833  546.95947
  -3.05764   65.47276  550.24131
  -3.00752   67.75660  553.63764
  -2.95739   71.04254  557.19867
  -2.90727   75.06486  560.96131
  -2.85714   79.19180  564.93083
  -2.80702   82.73169  569.07778
  -2.75689   85.22833  573.34988
  -2.70677   86.60558  577.69101
  -2.65664   87.12966  582.05841
  -2.60652   87.22946  586.43081
  -2.55639   87.24622  590.80406
  -2.50627   87.22804  595.17639
  -2.45614   86.91461  599.53301
  -2.40602   85.97505  603.84254
  -2.35589   84.36110  608.07117
  -2.30576   82.49303  612.20616
  -2.25564   81.08721  616.27068
  -2.20551   80.72688  620.31714
  -2.15539   81.51114  624.40291
  -2.10526   83.05781  628.56621
  -2.05514   84.82604  632.81814
  -2.00501   86.45723  637.15183
  -1.95489   87.86154  641.55592
  -1.90476   89.05243  646.01970
  -1.85464   89.96303  650.52913
  -1.80451   90.45153  655.06304
  -1.75439   90.48141  659.59845
  -1.70426   90.28435  664.12398
  -1.65414   90.33347  668.65197
  -1.60401   91.12317  673.21955
  -1.55388   92.90411  677.87640
  -1.50376   95.54414  682.66558
  -1.45363   98.59283  687.60757
  -1.40351  101.50659  692.69562
  -1.35338  103.91433  697.90436
  -1.30326  105.78704  703.20697
  -1.25313  107.41694  708.59128
  -1.20301  109.20456  714.06519
  -1.15288  111.36730  719.64751
  -1.10276  113.74960  725.34925
  -1.05263  115.86444  731.15699
  -1.00251  117.13805  737.02857
  -0.95238  117.18270  742.90239
  -0.90226  115.91724  748.71278
  -0.85213  113.49815  754.40191
  -0.80201  110.17788  759.92461
  -0.75188  106.23049  765.24944
  -0.70175  101.97506  770.36098
  -0.65163   97.81115  775.26379
  -0.60150   94.16593  779.98389
  -0.55138   91.33968  784.56232
  -0.50125   89.33850  789.04044
  -0.45113   87.81743  793.44231
  -0.40100   86.19745  797.76299
  -0.35088   83.90874  801.96894
  -0.30075   80.62735  806.01041
  -0.25063   76.37440  809.83870
  -0.20050   71.43820  813.41956
  -0.15038   66.19394  816.73756
  -0.10025   60.95017  819.79270
  -0.05013   55.90729  822.59507
   0.00000   51.21286  825.16213
   0.05013   47.02845  827.51945
   0.10025   43.53711  829.70176
   0.15038   40.89035  831.75140
   0.20050   39.14313  833.71346
   0.25063   38.21703  835.62911
   0.30075   37.89846  837.52878
   0.35088   37.86709  839.42688
   0.40100   37.75737  841.31948
   0.45113   37.24978  843.18663
   0.50125   36.16367  844.99935
   0.55138   34.50987  846.72917
   0.60150   32.47989  848.35723
   0.65163   30.38364  849.88022
   0.70175   28.56738  851.31217
   0.75188   27.33647  852.68242
   0.80201   26.88707  854.03014
   0.85213   27.24405  855.39576
   0.90226   28.22069  856.81033
   0.95238   29.43969  858.28600
   1.00251   30.44488  859.81206
   1.05263   30.87457  861.35966
   1.10276   30.60177  862.89358
   1.15288   29.74767  864.38469
   1.20301   28.56194  865.81637
   1.25313   27.26774  867.18317
   1.30326   25.99037  868.48595
   1.35338   24.80721  869.72942
   1.40351   23.85426  870.92512
   1.45363   23.39152  872.09763
   1.50376   23.77533  873.28937
   1.55388   25.34889  874.56000
   1.60401   28.29879  875.97848
   1.65414   32.53798  877.60946
   1.70426   37.67561  879.49796
   1.75439   43.10454  881.65859
   1.80451   48.17380  884.07331
   1.85464   52.36215  886.69798
   1.90476   55.38265  889.47406
   1.95489   57.20871  892.34166
   2.00501   58.05058  895.25146
   2.05514   58.29667  898.17360
   2.10526   58.41160  901.10150
   2.15539   58.79994  904.04887
   2.20551   59.68137  907.04042
   2.25564   61.03033  910.09958
   2.30576   62.59997  913.23742
   2.35589   64.01408  916.44615
   2.40602   64.89526  919.69904
   2.45614   64.99246  922.95681
   2.50627   64.26502  926.17812
   2.55639   62.88580  929.33029
   2.60652   61.15744  932.39582
   2.65664   59.38105  935.37232
   2.70677   57.74717  938.26691
   2.75689   56.30807  941.08937
   2.80702   55.03619  943.84808
   2.85714   53.90921  946.55029
   2.90727   52.94523  949.20419
   2.95739   52.16583  951.81902
   3.00752   51.53838  954.40240
   3.05764   50.96840  956.95720
   3.10777   50.36314  959.48167
   3.15789   49.72323  961.97406
   3.20802   49.19641  964.44005
   3.25815   49.05236  966.89881
   3.30827   49.58157  969.38411
   3.35840   50.95842  971.93841
   3.40852   53.12970  974.60155
   3.45865   55.78895  977.39799
   3.50877   58.46547  980.32859
   3.55890   60.69489  983.37094
   3.60902   62.18319  986.48790
   3.65915   62.87372  989.63946
   3.70927   62.88860  992.79177
   3.75940   62.39238  995.91921
   3.80952   61.46555  999.00019
   3.85965   60.06076 1002.01075
   3.90977   58.06203 1004.92113
   3.95990   55.40528 1007.69834
   4.01003   52.18279 1010.31402
   4.06015   48.67264 1012.75375
   4.11028   45.28933 1015.02389
   4.16040   42.49107 1017.15377
   4.21053   40.67633 1019.19268
   4.26065   40.08599 1021.20200
   4.31078   40.73203 1023.24371
   4.36090   42.38685 1025.36836
   4.41103   44.65224 1027.60657
   4.46115   47.08199 1029.96657
   4.51128   49.29749 1032.43762
   4.56140   51.04630 1034.99634
   4.61153   52.19699 1037.61273
   4.66165   52.70046 1040.25435
   4.71178   52.55611 1042.88874
   4.76190   51.80628 1045.48555
   4.81203   50.55576 1048.01967
   4.86216   48.98963 1050.47529
   4.91228   47.35582 1052.84902
   4.96241   45.90164 1055.14985
   5.01253   44.79236 1057.39508
   5.06266   44.06292 1059.60375
   5.11278   43.63460 1061.79095
   5.16291   43.37975 1063.96537
   5.21303   43.18349 1066.12996
   5.26316   42.96646 1068.28367
   5.31328   42.67786 1070.42291
   5.36341   42.29107 1072.54276
   5.41353   41.81144 1074.63857
   5.46366   41.27410 1076.70745
   5.51378   40.71451 1078.74828
   5.56391   40.13182 1080.75990
   5.61404   39.48617 1082.73915
   5.66416   38.74702 1084.68136
   5.71429   37.96122 1086.58418
   5.76441   37.28436 1088.45307
   5.81454   36.94157 1090.30478
   5.86466   37.13685 1092.16627
   5.91479   37.96729 1094.06940
   5.96491   39.38937 1096.04380
   6.01504   41.24160 1098.11105
   6.06516   43.29175 1100.28106
   6.11529   45.28024 1102.55075
   6.16541   46.95718 1104.90449
   6.21554   48.12625 1107.31683
   6.26566   48.69602 1109.75774
   6.31579   48.71536 1112.19961
   6.36591   48.36157 1114.62375
   6.41604   47.86933 1117.02321
   6.46617   47.42647 1119.40048
   6.51629   47.09254 1121.76101
   6.56642   46.79175 1124.10646
   6.61654   46.38857 1126.43170
   6.66667   45.79622 1128.72725
   6.71679   45.04141 1130.98497
   6.76692   44.23921 1133.20247
   6.81704   43.50266 1135.38305
   6.86717   42.86585 1137.53172
   6.91729   42.28543 1139.65129
   6.96742   41.70984 1141.74201
   7.01754   41.13691 1143.80401
   7.06767   40.59305 1145.83875
   7.11779   40.05359 1147.84645
   7.16792   39.39465 1149.82112
   7.21805   38.44149 1151.74801
   7.26817   37.08018 1153.60666
   7.31830   35.33313 1155.37775
   7.36842   33.33292 1157.04857
   7.41855   31.22367 1158.61367
   7.46867   29.07583 1160.07110
   7.51880   26.87310 1161.41812
   7.56892   24.55879 1162.64914
   7.61905   22.08910 1163.75636
   7.66917   19.45756 1164.73168
   7.71930   16.69398 1165.56847
   7.76942   13.85922 1166.26317
   7.81955   11.04598 1166.81685
   7.86967    8.37746 1167.23678
   7.91980    5.99071 1167.53706
   7.96992    4.00383 1167.73775
   8.02005    2.48113 1167.86212
   8.07018    1.41590 1167.93309
   8.12030    0.73987 1167.97018
   8.17043    0.35239 1167.98784
   8.22055    0.15241 1167.99548
   8.27068    0.05968 1167.99848
   8.32080    0.02111 1167.99953
   8.37093    0.00673 1167.99987
   8.42105    0.00193 1167.99997
   8.47118    0.00050 1167.99999
   8.52130    0.00011 1168.00000
   8.57143    0.00002 1168.00000
   8.62155    0.00000 1168.00000
   8.67168    0.00000 1168.00000
   8.72180    0.00000 1168.00000
   8.77193    0.00000 1168.00000
   8.82206    0.00000 1168.00000
   8.87218    0.00000 1168.00000
   8.92231    0.00000 1168.00000
   8.97243    0.00000 1168.00000
   9.02256    0.00000 1168.00000
   9.07268    0.00000 1168.00000
   9.12281   -0.00000 1168.00000
   9.17293    0.00000 1168.00000
   9.22306    0.00000 1168.00000
   9.27318    0.00000 1168.00000
   9.32331    0.00000 1168.00000
   9.37343    0.00000 1168.00000
   9.42356    0.00000 1168.00000
   9.47368    0.00000 1168.00000
   9.52381    0.00000 1168.00000
   9.57393    0.00000 1168.00000
   9.62406    0.00000 1168.00000
   9.67419    0.00000 1168.00000
   9.72431    0.00000 1168.00000
   9.77444    0.00000 1168.00000
   9.82456    0.00000 1168.00000
   9.87469    0.00000 1168.00000
   9.92481    0.00000 1168.00000
   9.97494    0.00000 1168.00000
  10.02506    0.00000 1168.00000
     10.02506266     -10.02506266   401       1.62124964       1.00000000; Z= 72; 6s 5p_y 5p_z 5p_x 5d_xy 5d_yz 5d_z^2 5d_xz 5d_x^2-y^2 
-10.02506   0.00000   0.00000   0.00000   0.00000   0.00000   0.00000   0.00000   0.00000   0.00000
 -9.97494   0.00000  -0.00000   0.00000  -0.00000   0.00000   0.00000   0.00000   0.00000   0.00000
 -9.92481   0.00000  -0.00000   0.00000  -0.00000   0.00000   0.00000   0.00000   0.00000   0.00000
 -9.87469   0.00000  -0.00000   0.00000  -0.00000   0.00000   0.00000   0.00000   0.00000   0.00000
 -9.82456   0.00000  -0.00000   0.00000  -0.00000   0.00000   0.00000   0.00000   0.00000   0.00000
 -9.77444   0.00000  -0.00000   0.00000  -0.00000   0.00000   0.00000   0.00000   0.00000   0.00000
 -9.72431   0.00000  -0.00000   0.00000  -0.00000   0.00000   0.00000   0.00000   0.00000   0.00000
 -9.67419   0.00000   0.00000   0.00000  -0.00000   0.00000   0.00000   0.00000   0.00000   0.00000
 -9.62406   0.00000   0.00000  -0.00000   0.00000   0.00000   0.00000   0.00000   0.00000   0.00000
 -9.57393   0.00000  -0.00000  -0.00000  -0.00000   0.00000   0.00000   0.00000   0.00000   0.00000
 -9.52381   0.00000   0.00000  -0.00000  -0.00000   0.00000   0.00000   0.00000   0.00000   0.00000
 -9.47368   0.00000  -0.00000   0.00000  -0.00000   0.00000   0.00000   0.00000   0.00000   0.00000
 -9.42356   0.00000  -0.00000  -0.00000  -0.00000   0.00000   0.00000   0.00000   0.00000   0.00000
 -9.37343   0.00000  -0.00000  -0.00000  -0.00000   0.00000   0.00000   0.00000   0.00000   0.00000
 -9.32331   0.00000  -0.00000  -0.00000  -0.00000   0.00000   0.00000   0.00000   0.00000   0.00000
 -9.27318   0.00000  -0.00000   0.00000  -0.00000   0.00000   0.00000   0.00000   0.00000   0.00000
 -9.22306   0.00000   0.00000   0.00000   0.00000   0.00000   0.00000   0.00000   0.00000   0.00000
 -9.17293   0.00000   0.00000   0.00000   0.00000   0.00000   0.00000   0.00000   0.00000   0.00000
 -9.12281   0.00000   0.00000   0.00000   0.00000   0.00000   0.00000   0.00000   0.00000   0.00000
 -9.07268   0.00000   0.00000   0.00000   0.00000   0.00000   0.00000   0.00000   0.00000   0.00000
 -9.02256   0.00000   0.00000   0.00000   0.00000   0.00000   0.00000   0.00000   0.00000   0.00000
 -8.97243   0.00000   0.00000   0.00000   0.00000   0.00000   0.00000   0.00000   0.00000   0.00000
 -8.92231   0.00000   0.00000   0.00000   0.00000   0.00000   0.00000   0.00000   0.00000   0.00000
 -8.87218   0.00000   0.00000   0.00000   0.00000   0.00000   0.00000   0.00000   0.00000   0.00000
 -8.82206   0.00001   0.00000   0.00000   0.00000   0.00000   0.00000   0.00000   0.00000   0.00000
 -8.77193   0.00003   0.00000   0.00000   0.00000   0.00000   0.00000   0.00000   0.00000   0.00000
 -8.72180   0.00010   0.00000   0.00000   0.00000   0.00000   0.00000   0.00000   0.00000   0.00000
 -8.67168   0.00026   0.00000   0.00000   0.00000   0.00000   0.00000   0.00000   0.00000   0.00000
 -8.62155   0.00059   0.00000   0.00001   0.00000   0.00000   0.00000   0.00000   0.00000   0.00000
 -8.57143   0.00122   0.00000   0.00002   0.00000   0.00000   0.00000   0.00000   0.00000   0.00000
 -8.52130   0.00225   0.00000   0.00003   0.00000   0.00000   0.00000   0.00000   0.00001   0.00000
 -8.47118   0.00376   0.00000   0.00005   0.00000   0.00000   0.00001   0.00000   0.00002   0.00000
 -8.42105   0.00571   0.00001   0.00007   0.00001   0.00000   0.00002   0.00000   0.00003   0.00000
 -8.37093   0.00793   0.00001   0.00010   0.00001   0.00001   0.00003   0.00000   0.00005   0.00000
 -8.32080   0.01014   0.00002   0.00013   0.00002   0.00001   0.00004  -0.00000   0.00008   0.00000
 -8.27068   0.01202   0.00002   0.00015   0.00002   0.00002   0.00005  -0.00001   0.00012   0.00000
 -8.22055   0.01338   0.00003   0.00016   0.00003   0.00002   0.00007  -0.00001   0.00017   0.00000
 -8.17043   0.01418   0.00004   0.00017   0.00004   0.00003   0.00009  -0.00002   0.00023   0.00000
 -8.12030   0.01460   0.00004   0.00017   0.00004   0.00005   0.00012  -0.00003   0.00029   0.00000
 -8.07018   0.01496   0.00005   0.00016   0.00005   0.00006   0.00015  -0.00003   0.00035   0.00001
 -8.02005   0.01561   0.00006   0.00016   0.00005   0.00007   0.00018  -0.00003   0.00040   0.00001
 -7.96992   0.01680   0.00006   0.00016   0.00006   0.00008   0.00021  -0.00003   0.00044   0.00002
 -7.91980   0.01858   0.00007   0.00016   0.00006   0.00009   0.00025  -0.00003   0.00047   0.00002
 -7.86967   0.02077   0.00008   0.00016   0.00006   0.00010   0.00028  -0.00003   0.00051   0.00003
 -7.81955   0.02301   0.00008   0.00017   0.00006   0.00011   0.00031  -0.00003   0.00058   0.00004
 -7.76942   0.02490   0.00009   0.00017   0.00006   0.00012   0.00035  -0.00003   0.00072   0.00005
 -7.71930   0.02613   0.00010   0.00016   0.00007   0.00014   0.00040  -0.00003   0.00092   0.00006
 -7.66917   0.02659   0.00010   0.00016   0.00009   0.00015   0.00045  -0.00004   0.00120   0.00007
 -7.61905   0.02635   0.00011   0.00015   0.00010   0.00018   0.00052  -0.00005   0.00150   0.00008
 -7.56892   0.02558   0.00012   0.00014   0.00012   0.00020   0.00059  -0.00006   0.00181   0.00009
 -7.51880   0.02448   0.00013   0.00013   0.00012   0.00023   0.00065  -0.00005   0.00208   0.00011
 -7.46867   0.02332   0.00013   0.00012   0.00013   0.00025   0.00070  -0.00002   0.00235   0.00013
 -7.41855   0.02259   0.00013   0.00011   0.00013   0.00028   0.00072   0.00006   0.00267   0.00017
 -7.36842   0.02306   0.00012   0.00009   0.00013   0.00031   0.00072   0.00021   0.00307   0.00023
 -7.31830   0.02560   0.00011   0.00008   0.00014   0.00033   0.00072   0.00046   0.00357   0.00032
 -7.26817   0.03095   0.00010   0.00007   0.00014   0.00035   0.00072   0.00081   0.00413   0.00047
 -7.21805   0.03937   0.00010   0.00007   0.00015   0.00037   0.00073   0.00126   0.00469   0.00066
 -7.16792   0.05042   0.00010   0.00006   0.00015   0.00038   0.00075   0.00176   0.00522   0.00090
 -7.11779   0.06294   0.00010   0.00005   0.00015   0.00039   0.00077   0.00223   0.00578   0.00114
 -7.06767   0.07518   0.00010   0.00005   0.00015   0.00041   0.00078   0.00258   0.00649   0.00137
 -7.01754   0.08536   0.00010   0.00004   0.00016   0.00042   0.00079   0.00276   0.00751   0.00155
 -6.96742   0.09206   0.00010   0.00003   0.00016   0.00043   0.00078   0.00275   0.00903   0.00169
 -6.91729   0.09465   0.00009   0.00003   0.00018   0.00044   0.00076   0.00261   0.01118   0.00178
 -6.86717   0.09328   0.00009   0.00002   0.00020   0.00044   0.00074   0.00240   0.01413   0.00185
 -6.81704   0.08866   0.00009   0.00001   0.00021   0.00044   0.00072   0.00223   0.01802   0.00197
 -6.76692   0.08170   0.00009   0.00001   0.00023   0.00044   0.00072   0.00220   0.02290   0.00223
 -6.71679   0.07328   0.00011   0.00000   0.00025   0.00046   0.00074   0.00241   0.02851   0.00276
 -6.66667   0.06410   0.00015   0.00000   0.00026   0.00052   0.00077   0.00299   0.03424   0.00379
 -6.61654   0.05474   0.00020  -0.00000   0.00025   0.00062   0.00082   0.00403   0.03905   0.00560
 -6.56642   0.04580   0.00026  -0.00000   0.00024   0.00080   0.00086   0.00566   0.04179   0.00853
 -6.51629   0.03806   0.00033  -0.00000   0.00021   0.00106   0.00089   0.00793   0.04166   0.01290
 -6.46617   0.03257   0.00038   0.00000   0.00017   0.00139   0.00090   0.01084   0.03856   0.01894
 -6.41604   0.03063   0.00041   0.00000   0.00013   0.00179   0.00088   0.01421   0.03327   0.02664
 -6.36591   0.03350   0.00041   0.00000   0.00010   0.00222   0.00084   0.01777   0.02711   0.03568
 -6.31579   0.04188   0.00039   0.00000   0.00007   0.00265   0.00079   0.02112   0.02141   0.04540
 -6.26566   0.05520   0.00035   0.00000   0.00004   0.00303   0.00073   0.02382   0.01701   0.05481
 -6.21554   0.07109   0.00030   0.00000   0.00003   0.00331   0.00068   0.02549   0.01409   0.06263
 -6.16541   0.08567   0.00025   0.00000   0.00002   0.00346   0.00065   0.02582   0.01228   0.06743
 -6.11529   0.09473   0.00020  -0.00000   0.00002   0.00345   0.00062   0.02468   0.01105   0.06802
 -6.06516   0.09536   0.00015  -0.00000   0.00001   0.00326   0.00059   0.02214   0.00996   0.06392
 -6.01504   0.08719   0.00010  -0.00001   0.00001   0.00290   0.00056   0.01855   0.00882   0.05567
 -5.96491   0.07243   0.00006  -0.00001   0.00000   0.00241   0.00051   0.01443   0.00765   0.04476
 -5.91479   0.05475   0.00003  -0.00001  -0.00000   0.00187   0.00044   0.01038   0.00651   0.03316
 -5.86466   0.03773   0.00001  -0.00001  -0.00001   0.00134   0.00036   0.00689   0.00548   0.02259
 -5.81454   0.02374  -0.00000  -0.00001  -0.00001   0.00089   0.00028   0.00421   0.00454   0.01415
 -5.76441   0.01367  -0.00001  -0.00000  -0.00001   0.00054   0.00020   0.00236   0.00367   0.00815
 -5.71429   0.00721  -0.00001  -0.00000  -0.00001   0.00030   0.00013   0.00122   0.00286   0.00431
 -5.66416   0.00348  -0.00000  -0.00000  -0.00001   0.00015   0.00008   0.00058   0.00211   0.00209
 -5.61404   0.00155  -0.00000  -0.00000  -0.00000   0.00007   0.00005   0.00025   0.00147   0.00093
 -5.56391   0.00064  -0.00000  -0.00000  -0.00000   0.00003   0.00003   0.00010   0.00095   0.00038
 -5.51378   0.00025  -0.00000  -0.00000  -0.00000   0.00001   0.00001   0.00004   0.00057   0.00014
 -5.46366   0.00009  -0.00000  -0.00000  -0.00000   0.00000   0.00001   0.00002   0.00032   0.00005
 -5.41353   0.00003  -0.00000  -0.00000  -0.00000   0.00000   0.00000   0.00001   0.00016   0.00002
 -5.36341   0.00001  -0.00000  -0.00000  -0.00000   0.00000   0.00000   0.00000   0.00008   0.00001
 -5.31328   0.00000  -0.00000  -0.00000  -0.00000  -0.00000   0.00000   0.00000   0.00003   0.00000
 -5.26316   0.00000  -0.00000  -0.00000  -0.00000   0.00000   0.00000   0.00000   0.00001   0.00000
 -5.21303   0.00001  -0.00000  -0.00000  -0.00000   0.00000   0.00000   0.00000   0.00000   0.00000
 -5.16291   0.00002  -0.00000  -0.00000  -0.00000   0.00000   0.00000   0.00001   0.00000   0.00001
 -5.11278   0.00008  -0.00000  -0.00000  -0.00000   0.00000   0.00001   0.00002   0.00000   0.00003
 -5.06266   0.00025  -0.00000  -0.00000  -0.00000   0.00001   0.00004   0.00006   0.00001   0.00009
 -5.01253   0.00069  -0.00000  -0.00000  -0.00000   0.00002   0.00009   0.00016   0.00002   0.00022
 -4.96241   0.00175  -0.00000  -0.00000  -0.00000   0.00006   0.00021   0.00039   0.00005   0.00052
 -4.91228   0.00404  -0.00000  -0.00001  -0.00000   0.00014   0.00043   0.00085   0.00015   0.00111
 -4.86216   0.00855  -0.00000  -0.00001  -0.00000   0.00028   0.00082   0.00171   0.00041   0.00214
 -4.81203   0.01657  -0.00001  -0.00002  -0.00000   0.00052   0.00142   0.00317   0.00098   0.00378
 -4.76190   0.02961  -0.00001  -0.00004  -0.00001   0.00087   0.00228   0.00545   0.00217   0.00622
 -4.71178   0.04897  -0.00002  -0.00007  -0.00002   0.00133   0.00341   0.00873   0.00439   0.00957
 -4.66165   0.07526  -0.00004  -0.00012  -0.00004   0.00184   0.00475   0.01310   0.00812   0.01391
 -4.61153   0.10793  -0.00006  -0.00017  -0.00006   0.00235   0.00623   0.01844   0.01371   0.01918
 -4.56140   0.14486  -0.00008  -0.00023  -0.00010   0.00283   0.00773   0.02441   0.02112   0.02513
 -4.51128   0.18252  -0.00011  -0.00029  -0.00014   0.00326   0.00912   0.03041   0.02973   0.03118
 -4.46115   0.21653  -0.00014  -0.00033  -0.00019   0.00369   0.01035   0.03573   0.03831   0.03658
 -4.41103   0.24257  -0.00018  -0.00036  -0.00023   0.00424   0.01145   0.03968   0.04535   0.04049
 -4.36090   0.25739  -0.00021  -0.00035  -0.00025   0.00505   0.01253   0.04179   0.04956   0.04237
 -4.31078   0.25951  -0.00024  -0.00033  -0.00026   0.00627   0.01364   0.04189   0.05030   0.04213
 -4.26065   0.24943  -0.00026  -0.00029  -0.00026   0.00798   0.01474   0.04018   0.04770   0.04011
 -4.21053   0.22947  -0.00028  -0.00025  -0.00025   0.01011   0.01566   0.03711   0.04255   0.03687
 -4.16040   0.20329  -0.00029  -0.00022  -0.00023   0.01250   0.01618   0.03333   0.03597   0.03301
 -4.11028   0.17498  -0.00028  -0.00019  -0.00020   0.01492   0.01618   0.02952   0.02912   0.02902
 -4.06015   0.14824  -0.00027  -0.00017  -0.00018   0.01721   0.01569   0.02626   0.02296   0.02531
 -4.01003   0.12585  -0.00025  -0.00015  -0.00016   0.01932   0.01496   0.02390   0.01813   0.02220
 -3.95990   0.10950  -0.00023  -0.00013  -0.00015   0.02129   0.01431   0.02259   0.01489   0.01997
 -3.90977   0.09984  -0.00022  -0.00012  -0.00015   0.02319   0.01403   0.02230   0.01325   0.01885
 -3.85965   0.09636  -0.00021  -0.00011  -0.00016   0.02505   0.01430   0.02294   0.01309   0.01895
 -3.80952   0.09737  -0.00022  -0.00010  -0.00017   0.02699   0.01514   0.02442   0.01437   0.02022
 -3.75940   0.10020  -0.00022  -0.00010  -0.00018   0.02928   0.01647   0.02660   0.01720   0.02235
 -3.70927   0.10191  -0.00023  -0.00012  -0.00020   0.03242   0.01816   0.02931   0.02179   0.02493
 -3.65915   0.10033  -0.00025  -0.00014  -0.00022   0.03700   0.02013   0.03242   0.02828   0.02763
 -3.60902   0.09484  -0.00027  -0.00016  -0.00025   0.04342   0.02238   0.03583   0.03641   0.03059
 -3.55890   0.08648  -0.00030  -0.00019  -0.00027   0.05160   0.02497   0.03949   0.04546   0.03466
 -3.50877   0.07724  -0.00036  -0.00022  -0.00029   0.06098   0.02790   0.04343   0.05429   0.04138
 -3.45865   0.06905  -0.00043  -0.00025  -0.00030   0.07063   0.03103   0.04760   0.06171   0.05257
 -3.40852   0.06317  -0.00052  -0.00027  -0.00032   0.07961   0.03403   0.05188   0.06694   0.06950
 -3.35840   0.06017  -0.00063  -0.00028  -0.00032   0.08703   0.03643   0.05588   0.06996   0.09196
 -3.30827   0.06074  -0.00072  -0.00029  -0.00032   0.09204   0.03774   0.05903   0.07149   0.11767
 -3.25815   0.06650  -0.00077  -0.00029  -0.00031   0.09388   0.03767   0.06070   0.07271   0.14253
 -3.20802   0.08057  -0.00078  -0.00029  -0.00031   0.09215   0.03627   0.06055   0.07484   0.16198
 -3.15789   0.10697  -0.00074  -0.00028  -0.00031   0.08734   0.03388   0.05891   0.07897   0.17305
 -3.10777   0.14873  -0.00068  -0.00027  -0.00031   0.08114   0.03108   0.05675   0.08601   0.17587
 -3.05764   0.20511  -0.00061  -0.00027  -0.00033   0.07631   0.02846   0.05539   0.09682   0.17379
 -3.00752   0.26941  -0.00056  -0.00026  -0.00035   0.07604   0.02657   0.05595   0.11201   0.17174
 -2.95739   0.32948  -0.00053  -0.00026  -0.00039   0.08300   0.02588   0.05896   0.13153   0.17381
 -2.90727   0.37169  -0.00053  -0.00027  -0.00044   0.09843   0.02684   0.06417   0.15396   0.18134
 -2.85714   0.38694  -0.00056  -0.00028  -0.00048   0.12144   0.02996   0.07084   0.17613   0.19261
 -2.80702   0.37489  -0.00060  -0.00029  -0.00052   0.14890   0.03575   0.07815   0.19351   0.20404
 -2.75689   0.34365  -0.00065  -0.00031  -0.00053   0.17599   0.04464   0.08552   0.20148   0.21207
 -2.70677   0.30519  -0.00070  -0.00032  -0.00051   0.19764   0.05671   0.09270   0.19722   0.21463
 -2.65664   0.26953  -0.00072  -0.00035  -0.00047   0.21027   0.07148   0.09963   0.18105   0.21172
 -2.60652   0.24131  -0.00071  -0.00038  -0.00041   0.21292   0.08782   0.10610   0.15660   0.20492
 -2.55639   0.21971  -0.00066  -0.00042  -0.00034   0.20731   0.10411   0.11154   0.12942   0.19637
 -2.50627   0.20089  -0.00059  -0.00045  -0.00028   0.19671   0.11877   0.11504   0.10489   0.18771
 -2.45614   0.18082  -0.00052  -0.00046  -0.00023   0.18450   0.13087   0.11570   0.08650   0.17950
 -2.40602   0.15735  -0.00044  -0.00046  -0.00019   0.17312   0.14063   0.11313   0.07537   0.17139
 -2.35589   0.13089  -0.00039  -0.00044  -0.00016   0.16397   0.14946   0.10785   0.07080   0.16288
 -2.30576   0.10391  -0.00036  -0.00041  -0.00014   0.15784   0.15936   0.10125   0.07125   0.15394
 -2.25564   0.07960  -0.00035  -0.00038  -0.00012   0.15547   0.17186   0.09504   0.07499   0.14527
 -2.20551   0.06047  -0.00036  -0.00036  -0.00011   0.15756   0.18720   0.09067   0.08029   0.13791
 -2.15539   0.04754  -0.00039  -0.00035  -0.00011   0.16448   0.20414   0.08898   0.08545   0.13270
 -2.10526   0.04030  -0.00043  -0.00036  -0.00011   0.17569   0.22047   0.09033   0.08908   0.12997
 -2.05514   0.03734  -0.00048  -0.00038  -0.00012   0.18960   0.23374   0.09486   0.09047   0.12946
 -2.00501   0.03705  -0.00052  -0.00040  -0.00013   0.20407   0.24199   0.10260   0.08979   0.13032
 -1.95489   0.03825  -0.00055  -0.00043  -0.00015   0.21696   0.24415   0.11317   0.08780   0.13100
 -1.90476   0.04043  -0.00056  -0.00044  -0.00017   0.22670   0.24020   0.12558   0.08535   0.12948