<?xml version="1.0" encoding="ISO-8859-1"?>
<modeling>
 <generator>
  <i name="program" type="string">vasp </i>
  <i name="version" type="string">5.4.4.18Apr17-6-g9f103f2a35  </i>
  <i name="subversion" type="string">(build Feb 22 2022 19:49:13) complex            parallel </i>
  <i name="platform" type="string">LinuxIFC </i>
  <i name="date" type="string">2024 08 30 </i>
  <i name="time" type="string">09:52:33 </i>
 </generator>
 <incar>
  <i type="int" name="ISTART">     0</i>
  <i type="string" name="PREC">a</i>
  <i type="string" name="ALGO"> Very Fast</i>
  <i type="int" name="ICHARG">     1</i>
  <i type="int" name="NELM">   200</i>
  <i type="int" name="IBRION">    -1</i>
  <i name="EDIFF">      0.00000010</i>
  <i name="EDIFFG">     -0.00100000</i>
  <i type="int" name="NSW">     0</i>
  <i type="int" name="ISIF">     7</i>
  <i type="int" name="ISYM">     2</i>
  <i name="ENCUT">    560.00000000</i>
  <i name="POTIM">      0.50000000</i>
  <i type="int" name="NEDOS">   666</i>
  <i type="logical" name="LREAL"> F  </i>
  <i type="int" name="ISMEAR">     1</i>
  <i name="SIGMA">      0.10000000</i>
  <i type="logical" name="LWAVE"> F  </i>
  <i type="logical" name="LCHARG"> F  </i>
  <i type="logical" name="LVTOT"> F  </i>
  <i type="int" name="LORBIT">    11</i>
  <i type="logical" name="LELF"> F  </i>
  <v type="int" name="KPOINT_BSE">    -1     0     0     0</v>
  <i type="int" name="NELM">   200</i>
  <i type="string" name="GGA">PE</i>
 </incar>
 <structure name="primitive_cell" >
  <crystal>
   <varray name="basis" >
    <v>       1.90477765       1.90477765      -0.00000000 </v>
    <v>       1.90477765       0.00000000      -1.90477765 </v>
    <v>       0.00000000       1.90477765      -1.90477765 </v>
   </varray>
   <i name="volume">     13.82174440 </i>
   <varray name="rec_basis" >
    <v>       0.26249783       0.26249783       0.26249783 </v>
    <v>       0.26249783      -0.26249783      -0.26249783 </v>
    <v>      -0.26249783       0.26249783      -0.26249783 </v>
   </varray>
  </crystal>
  <varray name="positions" >
   <v>       0.00000000       0.00000000       0.00000000 </v>
  </varray>
 </structure>
 <varray name="primitive_index" >
  <v type="int" >        1 </v>
 </varray>
 <kpoints>
  <generation param="Monkhorst-Pack">
   <v type="int" name="divisions">      16       16       16 </v>
   <v name="usershift">      0.00000000       0.00000000       0.00000000 </v>
   <v name="genvec1">      0.06250000       0.00000000       0.00000000 </v>
   <v name="genvec2">      0.00000000       0.06250000       0.00000000 </v>
   <v name="genvec3">      0.00000000       0.00000000       0.06250000 </v>
   <v name="shift">      0.50000000       0.50000000       0.50000000 </v>
  </generation>
  <varray name="kpointlist" >
   <v>       0.03125000       0.03125000       0.03125000 </v>
   <v>       0.09375000       0.03125000       0.03125000 </v>
   <v>       0.15625000       0.03125000       0.03125000 </v>
   <v>       0.21875000       0.03125000       0.03125000 </v>
   <v>       0.28125000       0.03125000       0.03125000 </v>
   <v>       0.34375000       0.03125000       0.03125000 </v>
   <v>       0.40625000       0.03125000       0.03125000 </v>
   <v>       0.46875000       0.03125000       0.03125000 </v>
   <v>       0.09375000       0.09375000       0.03125000 </v>
   <v>       0.15625000       0.09375000       0.03125000 </v>
   <v>       0.21875000       0.09375000       0.03125000 </v>
   <v>       0.28125000       0.09375000       0.03125000 </v>
   <v>       0.34375000       0.09375000       0.03125000 </v>
   <v>       0.40625000       0.09375000       0.03125000 </v>
   <v>       0.46875000       0.09375000       0.03125000 </v>
   <v>       0.15625000       0.15625000       0.03125000 </v>
   <v>       0.21875000       0.15625000       0.03125000 </v>
   <v>       0.28125000       0.15625000       0.03125000 </v>
   <v>       0.34375000       0.15625000       0.03125000 </v>
   <v>       0.40625000       0.15625000       0.03125000 </v>
   <v>       0.46875000       0.15625000       0.03125000 </v>
   <v>       0.21875000       0.21875000       0.03125000 </v>
   <v>       0.28125000       0.21875000       0.03125000 </v>
   <v>       0.34375000       0.21875000       0.03125000 </v>
   <v>       0.40625000       0.21875000       0.03125000 </v>
   <v>       0.46875000       0.21875000       0.03125000 </v>
   <v>       0.28125000       0.28125000       0.03125000 </v>
   <v>       0.34375000       0.28125000       0.03125000 </v>
   <v>       0.40625000       0.28125000       0.03125000 </v>
   <v>       0.46875000       0.28125000       0.03125000 </v>
   <v>       0.34375000       0.34375000       0.03125000 </v>
   <v>       0.40625000       0.34375000       0.03125000 </v>
   <v>       0.46875000       0.34375000       0.03125000 </v>
   <v>       0.40625000       0.40625000       0.03125000 </v>
   <v>       0.46875000       0.40625000       0.03125000 </v>
   <v>       0.46875000       0.46875000       0.03125000 </v>
   <v>       0.09375000       0.09375000       0.09375000 </v>
   <v>       0.15625000       0.09375000       0.09375000 </v>
   <v>       0.21875000       0.09375000       0.09375000 </v>
   <v>       0.28125000       0.09375000       0.09375000 </v>
   <v>       0.34375000       0.09375000       0.09375000 </v>
   <v>       0.40625000       0.09375000       0.09375000 </v>
   <v>       0.46875000       0.09375000       0.09375000 </v>
   <v>       0.15625000       0.15625000       0.09375000 </v>
   <v>       0.21875000       0.15625000       0.09375000 </v>
   <v>       0.28125000       0.15625000       0.09375000 </v>
   <v>       0.34375000       0.15625000       0.09375000 </v>
   <v>       0.40625000       0.15625000       0.09375000 </v>
   <v>       0.46875000       0.15625000       0.09375000 </v>
   <v>       0.21875000       0.21875000       0.09375000 </v>
   <v>       0.28125000       0.21875000       0.09375000 </v>
   <v>       0.34375000       0.21875000       0.09375000 </v>
   <v>       0.40625000       0.21875000       0.09375000 </v>
   <v>       0.46875000       0.21875000       0.09375000 </v>
   <v>       0.28125000       0.28125000       0.09375000 </v>
   <v>       0.34375000       0.28125000       0.09375000 </v>
   <v>       0.40625000       0.28125000       0.09375000 </v>
   <v>       0.46875000       0.28125000       0.09375000 </v>
   <v>       0.34375000       0.34375000       0.09375000 </v>
   <v>       0.40625000       0.34375000       0.09375000 </v>
   <v>       0.46875000       0.34375000       0.09375000 </v>
   <v>       0.40625000       0.40625000       0.09375000 </v>
   <v>       0.46875000       0.40625000       0.09375000 </v>
   <v>       0.46875000       0.46875000       0.09375000 </v>
   <v>       0.15625000       0.15625000       0.15625000 </v>
   <v>       0.21875000       0.15625000       0.15625000 </v>
   <v>       0.28125000       0.15625000       0.15625000 </v>
   <v>       0.34375000       0.15625000       0.15625000 </v>
   <v>       0.40625000       0.15625000       0.15625000 </v>
   <v>       0.46875000       0.15625000       0.15625000 </v>
   <v>       0.21875000       0.21875000       0.15625000 </v>
   <v>       0.28125000       0.21875000       0.15625000 </v>
   <v>       0.34375000       0.21875000       0.15625000 </v>
   <v>       0.40625000       0.21875000       0.15625000 </v>
   <v>       0.46875000       0.21875000       0.15625000 </v>
   <v>       0.28125000       0.28125000       0.15625000 </v>
   <v>       0.34375000       0.28125000       0.15625000 </v>
   <v>       0.40625000       0.28125000       0.15625000 </v>
   <v>       0.46875000       0.28125000       0.15625000 </v>
   <v>       0.34375000       0.34375000       0.15625000 </v>
   <v>       0.40625000       0.34375000       0.15625000 </v>
   <v>       0.46875000       0.34375000       0.15625000 </v>
   <v>       0.40625000       0.40625000       0.15625000 </v>
   <v>       0.46875000       0.40625000       0.15625000 </v>
   <v>       0.46875000       0.46875000       0.15625000 </v>
   <v>       0.21875000       0.21875000       0.21875000 </v>
   <v>       0.28125000       0.21875000       0.21875000 </v>
   <v>       0.34375000       0.21875000       0.21875000 </v>
   <v>       0.40625000       0.21875000       0.21875000 </v>
   <v>       0.46875000       0.21875000       0.21875000 </v>
   <v>       0.28125000       0.28125000       0.21875000 </v>
   <v>       0.34375000       0.28125000       0.21875000 </v>
   <v>       0.40625000       0.28125000       0.21875000 </v>
   <v>       0.46875000       0.28125000       0.21875000 </v>
   <v>       0.34375000       0.34375000       0.21875000 </v>
   <v>       0.40625000       0.34375000       0.21875000 </v>
   <v>       0.46875000       0.34375000       0.21875000 </v>
   <v>       0.40625000       0.40625000       0.21875000 </v>
   <v>       0.46875000       0.40625000       0.21875000 </v>
   <v>       0.46875000       0.46875000       0.21875000 </v>
   <v>       0.28125000       0.28125000       0.28125000 </v>
   <v>       0.34375000       0.28125000       0.28125000 </v>
   <v>       0.40625000       0.28125000       0.28125000 </v>
   <v>       0.46875000       0.28125000       0.28125000 </v>
   <v>       0.34375000       0.34375000       0.28125000 </v>
   <v>       0.40625000       0.34375000       0.28125000 </v>
   <v>       0.46875000       0.34375000       0.28125000 </v>
   <v>       0.40625000       0.40625000       0.28125000 </v>
   <v>       0.46875000       0.40625000       0.28125000 </v>
   <v>       0.46875000       0.46875000       0.28125000 </v>
   <v>       0.34375000       0.34375000       0.34375000 </v>
   <v>       0.40625000       0.34375000       0.34375000 </v>
   <v>       0.46875000       0.34375000       0.34375000 </v>
   <v>       0.40625000       0.40625000       0.34375000 </v>
   <v>       0.46875000       0.40625000       0.34375000 </v>
   <v>       0.46875000       0.46875000       0.34375000 </v>
   <v>       0.40625000       0.40625000       0.40625000 </v>
   <v>       0.46875000       0.40625000       0.40625000 </v>
   <v>       0.46875000       0.46875000       0.40625000 </v>
   <v>       0.46875000       0.46875000       0.46875000 </v>
  </varray>
  <varray name="weights" >
   <v>       0.00195312 </v>
   <v>       0.00585938 </v>
   <v>       0.00585938 </v>
   <v>       0.00585938 </v>
   <v>       0.00585938 </v>
   <v>       0.00585938 </v>
   <v>       0.00585938 </v>
   <v>       0.00585938 </v>
   <v>       0.00585938 </v>
   <v>       0.01171875 </v>
   <v>       0.01171875 </v>
   <v>       0.01171875 </v>
   <v>       0.01171875 </v>
   <v>       0.01171875 </v>
   <v>       0.01171875 </v>
   <v>       0.00585938 </v>
   <v>       0.01171875 </v>
   <v>       0.01171875 </v>
   <v>       0.01171875 </v>
   <v>       0.01171875 </v>
   <v>       0.01171875 </v>
   <v>       0.00585938 </v>
   <v>       0.01171875 </v>
   <v>       0.01171875 </v>
   <v>       0.01171875 </v>
   <v>       0.01171875 </v>
   <v>       0.00585938 </v>
   <v>       0.01171875 </v>
   <v>       0.01171875 </v>
   <v>       0.01171875 </v>
   <v>       0.00585938 </v>
   <v>       0.01171875 </v>
   <v>       0.01171875 </v>
   <v>       0.00585938 </v>
   <v>       0.01171875 </v>
   <v>       0.00585938 </v>
   <v>       0.00195312 </v>
   <v>       0.00585938 </v>
   <v>       0.00585938 </v>
   <v>       0.00585938 </v>
   <v>       0.00585938 </v>
   <v>       0.00585938 </v>
   <v>       0.00585938 </v>
   <v>       0.00585938 </v>
   <v>       0.01171875 </v>
   <v>       0.01171875 </v>
   <v>       0.01171875 </v>
   <v>       0.01171875 </v>
   <v>       0.01171875 </v>
   <v>       0.00585938 </v>
   <v>       0.01171875 </v>
   <v>       0.01171875 </v>
   <v>       0.01171875 </v>
   <v>       0.01171875 </v>
   <v>       0.00585938 </v>
   <v>       0.01171875 </v>
   <v>       0.01171875 </v>
   <v>       0.01171875 </v>
   <v>       0.00585938 </v>
   <v>       0.01171875 </v>
   <v>       0.01171875 </v>
   <v>       0.00585938 </v>
   <v>       0.01171875 </v>
   <v>       0.00585938 </v>
   <v>       0.00195312 </v>
   <v>       0.00585938 </v>
   <v>       0.00585938 </v>
   <v>       0.00585938 </v>
   <v>       0.00585938 </v>
   <v>       0.00585938 </v>
   <v>       0.00585938 </v>
   <v>       0.01171875 </v>
   <v>       0.01171875 </v>
   <v>       0.01171875 </v>
   <v>       0.01171875 </v>
   <v>       0.00585938 </v>
   <v>       0.01171875 </v>
   <v>       0.01171875 </v>
   <v>       0.01171875 </v>
   <v>       0.00585938 </v>
   <v>       0.01171875 </v>
   <v>       0.01171875 </v>
   <v>       0.00585938 </v>
   <v>       0.01171875 </v>
   <v>       0.00585938 </v>
   <v>       0.00195312 </v>
   <v>       0.00585938 </v>
   <v>       0.00585938 </v>
   <v>       0.00585938 </v>
   <v>       0.00585938 </v>
   <v>       0.00585938 </v>
   <v>       0.01171875 </v>
   <v>       0.01171875 </v>
   <v>       0.01171875 </v>
   <v>       0.00585938 </v>
   <v>       0.01171875 </v>
   <v>       0.01171875 </v>
   <v>       0.00585938 </v>
   <v>       0.01171875 </v>
   <v>       0.00585938 </v>
   <v>       0.00195312 </v>
   <v>       0.00585938 </v>
   <v>       0.00585938 </v>
   <v>       0.00585938 </v>
   <v>       0.00585938 </v>
   <v>       0.01171875 </v>
   <v>       0.01171875 </v>
   <v>       0.00585938 </v>
   <v>       0.01171875 </v>
   <v>       0.00585938 </v>
   <v>       0.00195312 </v>
   <v>       0.00585938 </v>
   <v>       0.00585938 </v>
   <v>       0.00585938 </v>
   <v>       0.01171875 </v>
   <v>       0.00585938 </v>
   <v>       0.00195312 </v>
   <v>       0.00585938 </v>
   <v>       0.00585938 </v>
   <v>       0.00195312 </v>
  </varray>
 </kpoints>
 <parameters>
  <separator name="general" >
   <i type="string" name="SYSTEM">unknown system</i>
   <i type="logical" name="LCOMPAT"> F  </i>
  </separator>
  <separator name="electronic" >
   <i type="string" name="PREC">a</i>
   <i name="ENMAX">    560.00000000</i>
   <i name="ENAUG">    430.79200000</i>
   <i name="EDIFF">      0.00000010</i>
   <i type="int" name="IALGO">    48</i>
   <i type="int" name="IWAVPR">    10</i>
   <i type="int" name="NBANDS">    40</i>
   <i name="NELECT">     56.00000000</i>
   <i type="int" name="TURBO">     0</i>
   <i type="int" name="IRESTART">     0</i>
   <i type="int" name="NREBOOT">     0</i>
   <i type="int" name="NMIN">     0</i>
   <i name="EREF">      0.00000000</i>
   <separator name="electronic smearing" >
    <i type="int" name="ISMEAR">     1</i>
    <i name="SIGMA">      0.10000000</i>
    <i name="KSPACING">      0.50000000</i>
    <i type="logical" name="KGAMMA"> T  </i>
   </separator>
   <separator name="electronic projectors" >
    <i type="logical" name="LREAL"> F  </i>
    <v name="ROPT">      0.00000000</v>
    <i type="int" name="LMAXPAW">  -100</i>
    <i type="int" name="LMAXMIX">     2</i>
    <i type="logical" name="NLSPLINE"> F  </i>
   </separator>
   <separator name="electronic startup" >
    <i type="int" name="ISTART">     0</i>
    <i type="int" name="ICHARG">     1</i>
    <i type="int" name="INIWAV">     1</i>
   </separator>
   <separator name="electronic spin" >
    <i type="int" name="ISPIN">     1</i>
    <i type="logical" name="LNONCOLLINEAR"> F  </i>
    <v name="MAGMOM">      1.00000000      1.00000000      1.00000000      1.00000000</v>
    <i name="NUPDOWN">     -1.00000000</i>
    <i type="logical" name="LSORBIT"> F  </i>
    <v name="SAXIS">      0.00000000      0.00000000      1.00000000</v>
    <i type="logical" name="LSPIRAL"> F  </i>
    <v name="QSPIRAL">      0.00000000      0.00000000      0.00000000</v>
    <i type="logical" name="LZEROZ"> F  </i>
   </separator>
   <separator name="electronic exchange-correlation" >
    <i type="logical" name="LASPH"> F  </i>
    <i type="logical" name="LMETAGGA"> F  </i>
   </separator>
   <separator name="electronic convergence" >
    <i type="int" name="NELM">   200</i>
    <i type="int" name="NELMDL">   -12</i>
    <i type="int" name="NELMIN">     2</i>
    <i name="ENINI">    560.00000000</i>
    <separator name="electronic convergence detail" >
     <i type="logical" name="LDIAG"> T  </i>
     <i type="logical" name="LSUBROT"> F  </i>
     <i name="WEIMIN">      0.00000000</i>
     <i name="EBREAK">      0.00000000</i>
     <i name="DEPER">      0.30000000</i>
     <i type="int" name="NRMM">     4</i>
     <i name="TIME">      0.40000000</i>
    </separator>
   </separator>
   <separator name="electronic mixer" >
    <i name="AMIX">      0.40000000</i>
    <i name="BMIX">      1.00000000</i>
    <i name="AMIN">      0.10000000</i>
    <i name="AMIX_MAG">      1.60000000</i>
    <i name="BMIX_MAG">      1.00000000</i>
    <separator name="electronic mixer details" >
     <i type="int" name="IMIX">     4</i>
     <i type="logical" name="MIXFIRST"> F  </i>
     <i type="int" name="MAXMIX">   -45</i>
     <i name="WC">    100.00000000</i>
     <i type="int" name="INIMIX">     1</i>
     <i type="int" name="MIXPRE">     1</i>
     <i type="int" name="MREMOVE">     5</i>
    </separator>
   </separator>
   <separator name="electronic dipolcorrection" >
    <i type="logical" name="LDIPOL"> F  </i>
    <i type="logical" name="LMONO"> F  </i>
    <i type="int" name="IDIPOL">     0</i>
    <i name="EPSILON">      1.00000000</i>
    <v name="DIPOL">   -100.00000000   -100.00000000   -100.00000000</v>
    <i name="EFIELD">      0.00000000</i>
   </separator>
  </separator>
  <separator name="grids" >
   <i type="int" name="NGX">    30</i>
   <i type="int" name="NGY">    30</i>
   <i type="int" name="NGZ">    30</i>
   <i type="int" name="NGXF">    60</i>
   <i type="int" name="NGYF">    60</i>
   <i type="int" name="NGZF">    60</i>
   <i type="logical" name="ADDGRID"> F  </i>
  </separator>
  <separator name="ionic" >
   <i type="int" name="NSW">     0</i>
   <i type="int" name="IBRION">    -1</i>
   <i type="int" name="MDALGO">     0</i>
   <i type="int" name="ISIF">     7</i>
   <i name="PSTRESS">      0.00000000</i>
   <i name="EDIFFG">     -0.00100000</i>
   <i type="int" name="NFREE">     0</i>
   <i name="POTIM">      0.50000000</i>
   <i name="SMASS">     -3.00000000</i>
   <i name="SCALEE">      1.00000000</i>
  </separator>
  <separator name="ionic md" >
   <i name="TEBEG">      0.00010000</i>
   <i name="TEEND">      0.00010000</i>
   <i type="int" name="NBLOCK">     1</i>
   <i type="int" name="KBLOCK">     1</i>
   <i type="int" name="NPACO">   256</i>
   <i name="APACO">     16.00000000</i>
  </separator>
  <separator name="symmetry" >
   <i type="int" name="ISYM">     2</i>
   <i name="SYMPREC">      0.00001000</i>
  </separator>
  <separator name="dos" >
   <i type="int" name="LORBIT">    11</i>
   <v name="RWIGS">     -1.00000000</v>
   <i type="int" name="NEDOS">   666</i>
   <i name="EMIN">     10.00000000</i>
   <i name="EMAX">    -10.00000000</i>
   <i name="EFERMI">      0.00000000</i>
  </separator>
  <separator name="writing" >
   <i type="int" name="NWRITE">     2</i>
   <i type="logical" name="LWAVE"> F  </i>
   <i type="logical" name="LDOWNSAMPLE"> F  </i>
   <i type="logical" name="LCHARG"> F  </i>
   <i type="logical" name="LPARD"> F  </i>
   <i type="logical" name="LVTOT"> F  </i>
   <i type="logical" name="LVHAR"> F  </i>
   <i type="logical" name="LELF"> F  </i>
   <i type="logical" name="LOPTICS"> F  </i>
   <v name="STM">      0.00000000      0.00000000      0.00000000      0.00000000      0.00000000      0.00000000      0.00000000</v>
  </separator>
  <separator name="performance" >
   <i type="int" name="NPAR">     8</i>
   <i type="int" name="NSIM">     4</i>
   <i type="int" name="NBLK">    -1</i>
   <i type="logical" name="LPLANE"> T  </i>
   <i type="logical" name="LSCALAPACK"> T  </i>
   <i type="logical" name="LSCAAWARE"> T  </i>
   <i type="logical" name="LSCALU"> F  </i>
   <i type="logical" name="LASYNC"> F  </i>
   <i type="logical" name="LORBITALREAL"> F  </i>
  </separator>
  <separator name="miscellaneous" >
   <i type="int" name="IDIOT">     3</i>
   <i type="int" name="ISPECIAL">     0</i>
   <i type="logical" name="LMUSIC"> F  </i>
   <v name="POMASS">    101.07000000</v>
   <v name="DARWINR">      0.00000000</v>
   <v name="DARWINV">      1.00000000</v>
   <i type="logical" name="LCORR"> T  </i>
  </separator>
  <i type="logical" name="GGA_COMPAT"> T  </i>
  <i type="logical" name="LBERRY"> F  </i>
  <i type="int" name="ICORELEVEL">     0</i>
  <i type="logical" name="LDAU"> F  </i>
  <i type="int" name="I_CONSTRAINED_M">     0</i>
  <separator name="electronic exchange-correlation" >
   <i type="string" name="GGA">PE</i>
   <i type="int" name="VOSKOWN">     0</i>
   <i type="logical" name="LHFCALC"> F  </i>
   <i type="string" name="PRECFOCK"></i>
   <i type="logical" name="LSYMGRAD"> F  </i>
   <i type="logical" name="LHFONE"> F  </i>
   <i type="logical" name="LRHFCALC"> F  </i>
   <i type="logical" name="LTHOMAS"> F  </i>
   <i type="logical" name="LMODELHF"> F  </i>
   <i name="ENCUT4O">     -1.00000000</i>
   <i type="int" name="EXXOEP">     0</i>
   <i type="int" name="FOURORBIT">     0</i>
   <i name="AEXX">      0.00000000</i>
   <i name="HFALPHA">      0.00000000</i>
   <i name="MCALPHA">      0.00000000</i>
   <i name="ALDAX">      1.00000000</i>
   <i name="AGGAX">      1.00000000</i>
   <i name="ALDAC">      1.00000000</i>
   <i name="AGGAC">      1.00000000</i>
   <i type="int" name="NKREDX">     1</i>
   <i type="int" name="NKREDY">     1</i>
   <i type="int" name="NKREDZ">     1</i>
   <i type="logical" name="SHIFTRED"> F  </i>
   <i type="logical" name="ODDONLY"> F  </i>
   <i type="logical" name="EVENONLY"> F  </i>
   <i type="int" name="LMAXFOCK">     0</i>
   <i type="int" name="NMAXFOCKAE">     0</i>
   <i type="logical" name="LFOCKAEDFT"> F  </i>
   <i name="HFSCREEN">      0.00000000</i>
   <i name="HFSCREENC">      0.00000000</i>
   <i type="int" name="NBANDSGWLOW">     0</i>
  </separator>
  <separator name="vdW DFT" >
   <i type="logical" name="LUSE_VDW"> F  </i>
   <i name="Zab_VDW">     -0.84910000</i>
   <i name="PARAM1">      0.12340000</i>
   <i name="PARAM2">      1.00000000</i>
   <i name="PARAM3">      0.00000000</i>
  </separator>
  <separator name="model GW" >
   <i type="int" name="MODEL_GW">     0</i>
   <i name="MODEL_EPS0">      8.29304664</i>
   <i name="MODEL_ALPHA">      1.00000000</i>
  </separator>
  <separator name="linear response parameters" >
   <i type="logical" name="LEPSILON"> F  </i>
   <i type="logical" name="LRPA"> F  </i>
   <i type="logical" name="LNABLA"> F  </i>
   <i type="logical" name="LVEL"> F  </i>
   <i type="int" name="KINTER">     0</i>
   <i name="CSHIFT">      0.10000000</i>
   <i name="OMEGAMAX">     -1.00000000</i>
   <i name="DEG_THRESHOLD">      0.00200000</i>
   <i name="RTIME">     -0.10000000</i>
   <i name="WPLASMAI">      0.00000000</i>
   <v name="DFIELD">      0.00000000      0.00000000      0.00000000</v>
   <v name="WPLASMA">      0.00000000      0.00000000      0.00000000      0.00000000      0.00000000      0.00000000      0.00000000      0.00000000      0.00000000</v>
  </separator>
  <separator name="orbital magnetization" >
   <i type="logical" name="NUCIND"> F  </i>
   <v name="MAGPOS">      0.00000000      0.00000000      0.00000000</v>
   <i type="logical" name="LNICSALL"> T  </i>
   <i type="logical" name="ORBITALMAG"> F  </i>
   <i type="logical" name="LMAGBLOCH"> F  </i>
   <i type="logical" name="LCHIMAG"> F  </i>
   <i type="logical" name="LGAUGE"> T  </i>
   <i type="int" name="MAGATOM">     0</i>
   <v name="MAGDIPOL">      0.00000000      0.00000000      0.00000000</v>
   <v name="AVECCONST">      0.00000000      0.00000000      0.00000000</v>
  </separator>
  <separator name="response functions" >
   <i type="logical" name="LADDER"> F  </i>
   <i type="logical" name="LRPAFORCE"> F  </i>
   <i type="logical" name="LFXC"> F  </i>
   <i type="logical" name="LHARTREE"> T  </i>
   <i type="int" name="IBSE">     0</i>
   <v type="int" name="KPOINT">    -1     0     0     0</v>
   <i type="logical" name="LTCTE"> F  </i>
   <i type="logical" name="LTETE"> F  </i>
   <i type="logical" name="LTRIPLET"> F  </i>
   <i type="logical" name="LFXCEPS"> F  </i>
   <i type="logical" name="LFXHEG"> F  </i>
   <i type="int" name="NATURALO">     2</i>
   <i type="logical" name="L2ORDER"> F  </i>
   <i type="logical" name="LMP2LT"> F  </i>
   <i type="logical" name="LUSEW"> F  </i>
   <i name="ENCUTGW">     -2.00000000</i>
   <i name="ENCUTGWSOFT">     -2.00000000</i>
   <i name="ENCUTLF">     -1.00000000</i>
   <i type="int" name="LMAXMP2">    -1</i>
   <i name="SCISSOR">      0.00000000</i>
   <i type="int" name="NOMEGA">     0</i>
   <i type="int" name="NOMEGAR">     0</i>
   <i type="int" name="NBANDSGW">    -1</i>
   <i type="int" name="NBANDSO">    -1</i>
   <i type="int" name="NBANDSV">    -1</i>
   <i type="int" name="NELM">   200</i>
   <i type="int" name="NELMHF">     1</i>
   <i type="int" name="DIM">     3</i>
   <i type="int" name="ANTIRES">     0</i>
   <i name="OMEGAMAX">    -30.00000000</i>
   <i name="OMEGAMIN">    -30.00000000</i>
   <i name="OMEGATL">   -200.00000000</i>
   <i type="int" name="OMEGAGRID">   140</i>
   <i name="CSHIFT">     -0.10000000</i>
   <i type="logical" name="SELFENERGY"> F  </i>
   <i type="logical" name="LSPECTRAL"> F  </i>
   <i type="logical" name="LSPECTRALGW"> F  </i>
   <i type="logical" name="LSINGLES"> F  </i>
   <i type="logical" name="LFERMIGW"> F  </i>
   <i type="logical" name="ODDONLYGW"> F  </i>
   <i type="logical" name="EVENONLYGW"> F  </i>
   <i type="int" name="NKREDLFX">     1</i>
   <i type="int" name="NKREDLFY">     1</i>
   <i type="int" name="NKREDLFZ">     1</i>
   <i type="int" name="MAXMEM">  2800</i>
   <i type="int" name="TELESCOPE">     0</i>
   <i type="int" name="TAUPAR">     1</i>
   <i type="int" name="OMEGAPAR">    -1</i>
   <i name="LAMBDA">      1.00000000</i>
  </separator>
  <separator name="External order field" >
   <i name="OFIELD_KAPPA">      0.00000000</i>
   <v name="OFIELD_K">      0.00000000      0.00000000      0.00000000</v>
   <i name="OFIELD_Q6_NEAR">      0.00000000</i>
   <i name="OFIELD_Q6_FAR">      0.00000000</i>
   <i name="OFIELD_A">      0.00000000</i>
  </separator>
  <separator name="solvation model" >
   <i type="logical" name="LSOL"> F  </i>
  </separator>
 </parameters>
 <atominfo>
  <atoms>       4 </atoms>
  <types>       1 </types>
  <array name="atoms" >
   <dimension dim="1">ion</dimension>
   <field type="string">element</field>
   <field type="int">atomtype</field>
   <set>
    <rc><c>Ru</c><c>   1</c></rc>
    <rc><c>Ru</c><c>   1</c></rc>
    <rc><c>Ru</c><c>   1</c></rc>
    <rc><c>Ru</c><c>   1</c></rc>
   </set>
  </array>
  <array name="atomtypes" >
   <dimension dim="1">type</dimension>
   <field type="int">atomspertype</field>
   <field type="string">element</field>
   <field>mass</field>
   <field>valence</field>
   <field type="string">pseudopotential</field>
   <set>
    <rc><c>   4</c><c>Ru</c><c>    101.07000000</c><c>     14.00000000</c><c>  PAW_PBE Ru_pv 28Jan2005               </c></rc>
   </set>
  </array>
 </atominfo>
 <structure name="initialpos" >
  <crystal>
   <varray name="basis" >
    <v>       3.80955531       0.00000000       0.00000000 </v>
    <v>       0.00000000       3.80955531       0.00000000 </v>
    <v>       0.00000000       0.00000000       3.80955531 </v>
   </varray>
   <i name="volume">     55.28697760 </i>
   <varray name="rec_basis" >
    <v>       0.26249783       0.00000000       0.00000000 </v>
    <v>       0.00000000       0.26249783       0.00000000 </v>
    <v>       0.00000000       0.00000000       0.26249783 </v>
   </varray>
  </crystal>
  <varray name="positions" >
   <v>       0.50000000       0.50000000       0.00000000 </v>
   <v>       0.50000000       0.00000000       0.50000000 </v>
   <v>       0.00000000       0.50000000       0.50000000 </v>
   <v>       0.00000000       0.00000000       0.00000000 </v>
  </varray>
 </structure>
 <calculation>
  <scstep>
   <time name="diag">    2.03    2.03</time>
   <time name="diis">    1.07    1.08</time>
   <time name="orth">    0.25    0.25</time>
   <time name="total">    3.41    3.44</time>
   <energy>
    <i name="alphaZ">    500.50101056 </i>
    <i name="ewald">  -6793.50872022 </i>
    <i name="hartreedc">  -1171.92531104 </i>
    <i name="XCdc">    232.81912889 </i>
    <i name="pawpsdc">   6274.37559775 </i>
    <i name="pawaedc">  -6215.42725836 </i>
    <i name="eentropy">      0.00065893 </i>
    <i name="bandstr">    139.92927458 </i>
    <i name="atom">   7493.87735540 </i>
    <i name="e_fr_energy">    460.64173650 </i>
    <i name="e_wo_entrp">    460.64107757 </i>
    <i name="e_0_energy">    460.64151686 </i>
   </energy>
  </scstep>
  <scstep>
   <time name="diag">    1.84    1.84</time>
   <time name="diis">    1.10    1.10</time>
   <time name="orth">    0.25    0.25</time>
   <time name="total">    3.19    3.20</time>
   <energy>
    <i name="e_fr_energy">    -99.35173504 </i>
    <i name="e_wo_entrp">    -99.35067329 </i>
    <i name="e_0_energy">    -99.35138113 </i>
   </energy>
  </scstep>
  <scstep>
   <time name="diag">    1.78    1.79</time>
   <time name="diis">    1.07    1.07</time>
   <time name="orth">    0.25    0.25</time>
   <time name="total">    3.10    3.11</time>
   <energy>
    <i name="e_fr_energy">    -15.79916124 </i>
    <i name="e_wo_entrp">    -15.80077281 </i>
    <i name="e_0_energy">    -15.79969843 </i>
   </energy>
  </scstep>
  <scstep>
   <time name="diag">    1.78    1.78</time>
   <time name="diis">    1.09    1.10</time>
   <time name="orth">    0.25    0.25</time>
   <time name="total">    3.13    3.13</time>
   <energy>
    <i name="e_fr_energy">    -33.28921477 </i>
    <i name="e_wo_entrp">    -33.28839599 </i>
    <i name="e_0_energy">    -33.28894185 </i>
   </energy>
  </scstep>
  <scstep>
   <time name="diag">    1.80    1.80</time>
   <time name="diis">    1.08    1.08</time>
   <time name="orth">    0.25    0.25</time>
   <time name="total">    3.13    3.13</time>
   <energy>
    <i name="e_fr_energy">    -37.81952940 </i>
    <i name="e_wo_entrp">    -37.81964982 </i>
    <i name="e_0_energy">    -37.81956954 </i>
   </energy>
  </scstep>
  <scstep>
   <time name="diag">    1.76    1.77</time>
   <time name="diis">    1.07    1.07</time>
   <time name="orth">    0.24    0.24</time>
   <time name="total">    3.09    3.09</time>
   <energy>
    <i name="e_fr_energy">    -38.89489944 </i>
    <i name="e_wo_entrp">    -38.89574164 </i>
    <i name="e_0_energy">    -38.89518017 </i>
   </energy>
  </scstep>
  <scstep>
   <time name="diag">    1.76    1.77</time>
   <time name="diis">    1.07    1.07</time>
   <time name="orth">    0.27    0.28</time>
   <time name="total">    3.12    3.12</time>
   <energy>
    <i name="e_fr_energy">    -39.06770063 </i>
    <i name="e_wo_entrp">    -39.06870821 </i>
    <i name="e_0_energy">    -39.06803649 </i>
   </energy>
  </scstep>
  <scstep>
   <time name="diag">    1.83    1.86</time>
   <time name="diis">    1.09    1.09</time>
   <time name="orth">    0.25    0.25</time>
   <time name="total">    3.18    3.20</time>
   <energy>
    <i name="e_fr_energy">    -39.12986039 </i>
    <i name="e_wo_entrp">    -39.13084118 </i>
    <i name="e_0_energy">    -39.13018732 </i>
   </energy>
  </scstep>
  <scstep>
   <time name="diag">    1.76    1.76</time>
   <time name="diis">    2.94    2.95</time>
   <time name="orth">    0.24    0.24</time>
   <time name="total">    4.95    4.96</time>
   <energy>
    <i name="e_fr_energy">    -39.17419164 </i>
    <i name="e_wo_entrp">    -39.17514683 </i>
    <i name="e_0_energy">    -39.17451004 </i>
   </energy>
  </scstep>
  <scstep>
   <time name="diag">    1.75    1.75</time>
   <time name="diis">    2.77    2.77</time>
   <time name="orth">    0.24    0.24</time>
   <time name="total">    4.76    4.77</time>
   <energy>
    <i name="e_fr_energy">    -39.17537440 </i>
    <i name="e_wo_entrp">    -39.17632606 </i>
    <i name="e_0_energy">    -39.17569162 </i>
   </energy>
  </scstep>
  <scstep>
   <time name="diag">    1.76    1.76</time>
   <time name="diis">    3.11    3.11</time>
   <time name="orth">    0.26    0.26</time>
   <time name="total">    5.14    5.15</time>
   <energy>
    <i name="e_fr_energy">    -39.17545499 </i>
    <i name="e_wo_entrp">    -39.17640696 </i>
    <i name="e_0_energy">    -39.17577231 </i>
   </energy>
  </scstep>
  <scstep>
   <time name="diag">    1.76    1.77</time>
   <time name="diis">    3.01    3.01</time>
   <time name="orth">    0.25    0.25</time>
   <time name="total">    5.23    5.24</time>
   <energy>
    <i name="e_fr_energy">    -39.17543400 </i>
    <i name="e_wo_entrp">    -39.17638597 </i>
    <i name="e_0_energy">    -39.17575133 </i>
   </energy>
  </scstep>
  <scstep>
   <time name="diag">    1.74    1.74</time>
   <time name="diis">    2.12    2.12</time>
   <time name="orth">    0.24    0.24</time>
   <time name="total">    4.34    4.35</time>
   <energy>
    <i name="e_fr_energy">    -36.66956217 </i>
    <i name="e_wo_entrp">    -36.67032400 </i>
    <i name="e_0_energy">    -36.66981611 </i>
   </energy>
  </scstep>
  <scstep>
   <time name="diag">    1.73    1.73</time>
   <time name="diis">    2.14    2.15</time>
   <time name="orth">    0.24    0.24</time>
   <time name="total">    4.34    4.34</time>
   <energy>
    <i name="e_fr_energy">    -36.50296777 </i>
    <i name="e_wo_entrp">    -36.50386145 </i>
    <i name="e_0_energy">    -36.50326566 </i>
   </energy>
  </scstep>
  <scstep>
   <time name="diag">    2.36    2.45</time>
   <time name="diis">    2.27    2.27</time>
   <time name="orth">    0.24    0.24</time>
   <time name="total">    5.09    5.21</time>
   <energy>
    <i name="e_fr_energy">    -36.48689819 </i>
    <i name="e_wo_entrp">    -36.48776111 </i>
    <i name="e_0_energy">    -36.48718583 </i>
   </energy>
  </scstep>
  <scstep>
   <time name="diag">    1.75    1.75</time>
   <time name="diis">    2.34    2.34</time>
   <time name="orth">    0.24    0.24</time>
   <time name="total">    4.55    4.56</time>
   <energy>
    <i name="e_fr_energy">    -36.48662390 </i>
    <i name="e_wo_entrp">    -36.48746688 </i>
    <i name="e_0_energy">    -36.48690489 </i>
   </energy>
  </scstep>
  <scstep>
   <time name="diag">    1.77    1.78</time>
   <time name="diis">    2.47    2.47</time>
   <time name="orth">    0.25    0.25</time>
   <time name="total">    4.72    4.72</time>
   <energy>
    <i name="e_fr_energy">    -36.48660985 </i>
    <i name="e_wo_entrp">    -36.48744769 </i>
    <i name="e_0_energy">    -36.48688913 </i>
   </energy>
  </scstep>
  <scstep>
   <time name="diag">    1.75    1.75</time>
   <time name="diis">    2.43    2.43</time>
   <time name="orth">    0.25    0.25</time>
   <time name="total">    4.66    4.67</time>
   <energy>
    <i name="e_fr_energy">    -36.48660944 </i>
    <i name="e_wo_entrp">    -36.48744936 </i>
    <i name="e_0_energy">    -36.48688941 </i>
   </energy>
  </scstep>
  <scstep>
   <time name="diag">    1.77    1.78</time>
   <time name="diis">    2.60    2.60</time>
   <time name="orth">    0.25    0.25</time>
   <time name="total">    4.85    4.86</time>
   <energy>
    <i name="e_fr_energy">    -36.48661033 </i>
    <i name="e_wo_entrp">    -36.48745043 </i>
    <i name="e_0_energy">    -36.48689036 </i>
   </energy>
  </scstep>
  <scstep>
   <time name="diag">    1.75    1.75</time>
   <time name="diis">    1.75    1.75</time>
   <time name="orth">    0.24    0.24</time>
   <time name="total">    3.97    3.97</time>
   <energy>
    <i name="e_fr_energy">    -36.48661056 </i>
    <i name="e_wo_entrp">    -36.48745053 </i>
    <i name="e_0_energy">    -36.48689055 </i>
   </energy>
  </scstep>
  <scstep>
   <time name="diag">    1.73    1.73</time>
   <time name="diis">    1.61    1.62</time>
   <time name="orth">    0.24    0.24</time>
   <time name="total">    3.80    3.81</time>
   <energy>
    <i name="e_fr_energy">    -36.48661074 </i>
    <i name="e_wo_entrp">    -36.48745068 </i>
    <i name="e_0_energy">    -36.48689072 </i>
   </energy>
  </scstep>
  <scstep>
   <time name="diag">    1.73    1.73</time>
   <time name="diis">    1.49    1.49</time>
   <time name="orth">    0.25    0.25</time>
   <time name="total">    3.49    3.53</time>
   <energy>
    <i name="alphaZ">    500.50101056 </i>
    <i name="ewald">  -6793.50872022 </i>
    <i name="hartreedc">  -1074.75030979 </i>
    <i name="XCdc">    228.13429948 </i>
    <i name="pawpsdc">   7072.45498711 </i>
    <i name="pawaedc">  -7033.89876639 </i>
    <i name="eentropy">      0.00083993 </i>
    <i name="bandstr">   -429.29730684 </i>
    <i name="atom">   7493.87735540 </i>
    <i name="e_fr_energy">    -36.48661075 </i>
    <i name="e_wo_entrp">    -36.48745069 </i>
    <i name="e_0_energy">    -36.48689073 </i>
   </energy>
  </scstep>
  <structure>
   <crystal>
    <varray name="basis" >
     <v>       3.80955531       0.00000000       0.00000000 </v>
     <v>       0.00000000       3.80955531       0.00000000 </v>
     <v>       0.00000000       0.00000000       3.80955531 </v>
    </varray>
    <i name="volume">     55.28697760 </i>
    <varray name="rec_basis" >
     <v>       0.26249783       0.00000000       0.00000000 </v>
     <v>       0.00000000       0.26249783       0.00000000 </v>
     <v>       0.00000000       0.00000000       0.26249783 </v>
    </varray>
   </crystal>
   <varray name="positions" >
    <v>       0.50000000       0.50000000       0.00000000 </v>
    <v>       0.50000000       0.00000000       0.50000000 </v>
    <v>       0.00000000       0.50000000       0.50000000 </v>
    <v>       0.00000000       0.00000000       0.00000000 </v>
   </varray>
  </structure>
  <varray name="forces" >
   <v>      -0.00000000      -0.00000000       0.00000000 </v>
   <v>      -0.00000000       0.00000000       0.00000000 </v>
   <v>      -0.00000000      -0.00000000      -0.00000000 </v>
   <v>       0.00000000       0.00000000      -0.00000000 </v>
  </varray>
  <varray name="stress" >
   <v>       0.41119853      -0.00000000      -0.00000000 </v>
   <v>      -0.00000000       0.41119853      -0.00000000 </v>
   <v>       0.00000000       0.00000000       0.41119853 </v>
  </varray>
  <energy>
   <i name="e_fr_energy">    -36.48661075 </i>
   <i name="e_wo_entrp">    -36.48689073 </i>
   <i name="e_0_energy">      0.00083993 </i>
  </energy>
  <time name="totalsc">   90.84   91.18</time>
  <eigenvalues>
   <array>
    <dimension dim="1">band</dimension>
    <dimension dim="2">kpoint</dimension>
    <dimension dim="3">spin</dimension>
    <field>eigene</field>
    <field>occ</field>
    <set>
     <set comment="spin 1">
      <set comment="kpoint 1">
       <r>  -30.9322    1.0000 </r>
       <r>  -30.9322    1.0000 </r>
       <r>  -30.9322    1.0000 </r>
       <r>  -30.3618    1.0000 </r>
       <r>  -30.3618    1.0000 </r>
       <r>  -30.3618    1.0000 </r>
       <r>  -30.3561    1.0000 </r>
       <r>  -30.3561    1.0000 </r>
       <r>  -30.3561    1.0000 </r>
       <r>  -30.0037    1.0000 </r>
       <r>  -29.9949    1.0000 </r>
       <r>  -29.9949    1.0000 </r>
       <r>    4.6742    1.0000 </r>
       <r>    6.2313    1.0000 </r>
       <r>    6.2313    1.0000 </r>
       <r>    6.2313    1.0000 </r>
       <r>    6.6975    1.0000 </r>
       <r>    6.6975    1.0000 </r>
       <r>    6.6975    1.0000 </r>
       <r>    9.8984    1.0000 </r>
       <r>    9.9380    1.0000 </r>
       <r>    9.9380    1.0000 </r>
       <r>   12.2933    1.0335 </r>
       <r>   12.2933    1.0335 </r>
       <r>   14.0422   -0.0000 </r>
       <r>   14.0422   -0.0000 </r>
       <r>   14.0422   -0.0000 </r>
       <r>   14.3611   -0.0000 </r>
       <r>   14.3611   -0.0000 </r>
       <r>   14.3611   -0.0000 </r>
       <r>   14.5947   -0.0000 </r>
       <r>   14.5947   -0.0000 </r>
       <r>   14.5947   -0.0000 </r>
       <r>   16.2624    0.0000 </r>
       <r>   16.2624    0.0000 </r>
       <r>   16.2624    0.0000 </r>
       <r>   22.9900    0.0000 </r>
       <r>   25.6635    0.0000 </r>
       <r>   25.8266    0.0000 </r>
       <r>   25.9082    0.0000 </r>
      </set>
      <set comment="kpoint 2">
       <r>  -30.9217    1.0000 </r>
       <r>  -30.9217    1.0000 </r>
       <r>  -30.9160    1.0000 </r>
       <r>  -30.3750    1.0000 </r>
       <r>  -30.3750    1.0000 </r>
       <r>  -30.3552    1.0000 </r>
       <r>  -30.3552    1.0000 </r>
       <r>  -30.3548    1.0000 </r>
       <r>  -30.3493    1.0000 </r>
       <r>  -30.0259    1.0000 </r>
       <r>  -30.0020    1.0000 </r>
       <r>  -29.9995    1.0000 </r>
       <r>    4.7836    1.0000 </r>
       <r>    6.2955    1.0000 </r>
       <r>    6.3116    1.0000 </r>
       <r>    6.3116    1.0000 </r>
       <r>    6.7455    1.0000 </r>
       <r>    6.7763    1.0000 </r>
       <r>    6.7763    1.0000 </r>
       <r>    9.8213    1.0000 </r>
       <r>    9.9923    1.0000 </r>
       <r>    9.9970    1.0000 </r>
       <r>   12.2030    1.0033 </r>
       <r>   12.3244    1.0285 </r>
       <r>   13.7143   -0.0000 </r>
       <r>   13.7143   -0.0000 </r>
       <r>   13.9229   -0.0000 </r>
       <r>   13.9229   -0.0000 </r>
       <r>   13.9873   -0.0000 </r>
       <r>   14.1868   -0.0000 </r>
       <r>   14.4598   -0.0000 </r>
       <r>   14.5867   -0.0000 </r>
       <r>   14.5867   -0.0000 </r>
       <r>   15.8871    0.0000 </r>
       <r>   16.9534    0.0000 </r>
       <r>   16.9534    0.0000 </r>
       <r>   22.9901    0.0000 </r>
       <r>   25.3584    0.0000 </r>
       <r>   25.8212    0.0000 </r>
       <r>   25.9481    0.0000 </r>
      </set>
      <set comment="kpoint 3">
       <r>  -30.9010    1.0000 </r>
       <r>  -30.9010    1.0000 </r>
       <r>  -30.8839    1.0000 </r>
       <r>  -30.3978    1.0000 </r>
       <r>  -30.3978    1.0000 </r>
       <r>  -30.3562    1.0000 </r>
       <r>  -30.3562    1.0000 </r>
       <r>  -30.3410    1.0000 </r>
       <r>  -30.3359    1.0000 </r>
       <r>  -30.0649    1.0000 </r>
       <r>  -30.0158    1.0000 </r>
       <r>  -30.0125    1.0000 </r>
       <r>    4.9981    1.0000 </r>
       <r>    6.4189    1.0000 </r>
       <r>    6.4672    1.0000 </r>
       <r>    6.4672    1.0000 </r>
       <r>    6.8406    1.0000 </r>
       <r>    6.9328    1.0000 </r>
       <r>    6.9328    1.0000 </r>
       <r>    9.6634    1.0000 </r>
       <r>   10.1106    1.0000 </r>
       <r>   10.1144    1.0000 </r>
       <r>   12.0312    1.0000 </r>
       <r>   12.3858    0.8241 </r>
       <r>   12.9348   -0.0000 </r>
       <r>   12.9348   -0.0000 </r>
       <r>   13.6718   -0.0000 </r>
       <r>   13.6718   -0.0000 </r>
       <r>   13.8535   -0.0000 </r>
       <r>   13.8616   -0.0000 </r>
       <r>   14.2298   -0.0000 </r>
       <r>   14.5853   -0.0000 </r>
       <r>   14.5853   -0.0000 </r>
       <r>   15.2522    0.0000 </r>
       <r>   17.8291    0.0000 </r>
       <r>   17.8291    0.0000 </r>
       <r>   22.9915    0.0000 </r>
       <r>   24.9399    0.0000 </r>
       <r>   25.8057    0.0000 </r>
       <r>   26.2894    0.0000 </r>
      </set>
      <set comment="kpoint 4">
       <r>  -30.8708    1.0000 </r>
       <r>  -30.8708    1.0000 </r>
       <r>  -30.8370    1.0000 </r>
       <r>  -30.4300    1.0000 </r>
       <r>  -30.4300    1.0000 </r>
       <r>  -30.3583    1.0000 </r>
       <r>  -30.3583    1.0000 </r>
       <r>  -30.3209    1.0000 </r>
       <r>  -30.3165    1.0000 </r>
       <r>  -30.1198    1.0000 </r>
       <r>  -30.0359    1.0000 </r>
       <r>  -30.0326    1.0000 </r>
       <r>    5.3076    1.0000 </r>
       <r>    6.5900    1.0000 </r>
       <r>    6.6874    1.0000 </r>
       <r>    6.6874    1.0000 </r>
       <r>    6.9813    1.0000 </r>
       <r>    7.1652    1.0000 </r>
       <r>    7.1652    1.0000 </r>
       <r>    9.4416    1.0000 </r>
       <r>   10.2863    1.0000 </r>
       <r>   10.2892    1.0000 </r>
       <r>   11.7965    1.0000 </r>
       <r>   12.1442    1.0002 </r>
       <r>   12.1442    1.0002 </r>
       <r>   12.4759    0.1413 </r>
       <r>   13.3299   -0.0000 </r>
       <r>   13.3299   -0.0000 </r>
       <r>   13.3795   -0.0000 </r>
       <r>   13.6165   -0.0000 </r>
       <r>   13.9920   -0.0000 </r>
       <r>   14.5090   -0.0000 </r>
       <r>   14.5852   -0.0000 </r>
       <r>   14.5852   -0.0000 </r>
       <r>   18.7518    0.0000 </r>
       <r>   18.7518    0.0000 </r>
       <r>   22.9987    0.0000 </r>
       <r>   24.5733    0.0000 </r>
       <r>   24.7686    0.0000 </r>
       <r>   26.0972    0.0000 </r>
      </set>
      <set comment="kpoint 5">
       <r>  -30.8323    1.0000 </r>
       <r>  -30.8323    1.0000 </r>
       <r>  -30.7767    1.0000 </r>
       <r>  -30.4705    1.0000 </r>
       <r>  -30.4705    1.0000 </r>
       <r>  -30.3607    1.0000 </r>
       <r>  -30.3607    1.0000 </r>
       <r>  -30.2954    1.0000 </r>
       <r>  -30.2917    1.0000 </r>
       <r>  -30.1885    1.0000 </r>
       <r>  -30.0614    1.0000 </r>
       <r>  -30.0586    1.0000 </r>
       <r>    5.6948    1.0000 </r>
       <r>    6.7888    1.0000 </r>
       <r>    6.9537    1.0000 </r>
       <r>    6.9537    1.0000 </r>
       <r>    7.1650    1.0000 </r>
       <r>    7.4703    1.0000 </r>
       <r>    7.4703    1.0000 </r>
       <r>    9.1721    1.0000 </r>
       <r>   10.5126    1.0000 </r>
       <r>   10.5194    1.0000 </r>
       <r>   11.3794    1.0000 </r>
       <r>   11.3794    1.0000 </r>
       <r>   11.5313    1.0000 </r>
       <r>   12.5924   -0.0210 </r>
       <r>   12.7836   -0.0000 </r>
       <r>   12.9317   -0.0000 </r>
       <r>   12.9317   -0.0000 </r>
       <r>   13.2432   -0.0000 </r>
       <r>   13.7868   -0.0000 </r>
       <r>   13.7968   -0.0000 </r>
       <r>   14.5856   -0.0000 </r>
       <r>   14.5856   -0.0000 </r>
       <r>   19.6819    0.0000 </r>
       <r>   19.6819    0.0000 </r>
       <r>   23.0430    0.0000 </r>
       <r>   24.2848    0.0000 </r>
       <r>   24.4089    0.0000 </r>
       <r>   25.1869    0.0000 </r>
      </set>
      <set comment="kpoint 6">
       <r>  -30.7867    1.0000 </r>
       <r>  -30.7867    1.0000 </r>
       <r>  -30.7048    1.0000 </r>
       <r>  -30.5179    1.0000 </r>
       <r>  -30.5179    1.0000 </r>
       <r>  -30.3630    1.0000 </r>
       <r>  -30.3630    1.0000 </r>
       <r>  -30.2680    1.0000 </r>
       <r>  -30.2652    1.0000 </r>
       <r>  -30.2624    1.0000 </r>
       <r>  -30.0913    1.0000 </r>
       <r>  -30.0892    1.0000 </r>
       <r>    6.1298    1.0000 </r>
       <r>    6.9812    1.0000 </r>
       <r>    7.2355    1.0000 </r>
       <r>    7.2355    1.0000 </r>
       <r>    7.3881    1.0000 </r>
       <r>    7.8441    1.0000 </r>
       <r>    7.8441    1.0000 </r>
       <r>    8.8714    1.0000 </r>
       <r>   10.6541    1.0000 </r>
       <r>   10.6541    1.0000 </r>
       <r>   10.7621    1.0000 </r>
       <r>   10.8024    1.0000 </r>
       <r>   11.3024    1.0000 </r>
       <r>   12.1232    1.0001 </r>
       <r>   12.5289   -0.0260 </r>
       <r>   12.5289   -0.0260 </r>
       <r>   12.7319   -0.0001 </r>
       <r>   12.8091   -0.0000 </r>
       <r>   13.1491   -0.0000 </r>
       <r>   13.6146   -0.0000 </r>
       <r>   14.5862   -0.0000 </r>
       <r>   14.5862   -0.0000 </r>
       <r>   20.5964    0.0000 </r>
       <r>   20.5964    0.0000 </r>
       <r>   23.2945    0.0000 </r>
       <r>   23.9876    0.0000 </r>
       <r>   24.0006    0.0000 </r>
       <r>   24.9380    0.0000 </r>
      </set>
      <set comment="kpoint 7">
       <r>  -30.7359    1.0000 </r>
       <r>  -30.7359    1.0000 </r>
       <r>  -30.6238    1.0000 </r>
       <r>  -30.5701    1.0000 </r>
       <r>  -30.5701    1.0000 </r>
       <r>  -30.3647    1.0000 </r>
       <r>  -30.3647    1.0000 </r>
       <r>  -30.3549    1.0000 </r>
       <r>  -30.2316    1.0000 </r>
       <r>  -30.2298    1.0000 </r>
       <r>  -30.1244    1.0000 </r>
       <r>  -30.1232    1.0000 </r>
       <r>    6.5624    1.0000 </r>
       <r>    7.1121    1.0000 </r>
       <r>    7.4842    1.0000 </r>
       <r>    7.4842    1.0000 </r>
       <r>    7.6458    1.0000 </r>
       <r>    8.2836    1.0000 </r>
       <r>    8.2836    1.0000 </r>
       <r>    8.5555    1.0000 </r>
       <r>    9.9766    1.0000 </r>
       <r>    9.9766    1.0000 </r>
       <r>   10.8792    1.0000 </r>
       <r>   11.1344    1.0000 </r>
       <r>   11.3246    1.0000 </r>
       <r>   11.5135    1.0000 </r>
       <r>   12.1890    1.0019 </r>
       <r>   12.1890    1.0019 </r>
       <r>   12.3605    0.9506 </r>
       <r>   12.5907   -0.0218 </r>
       <r>   12.8905   -0.0000 </r>
       <r>   13.4306   -0.0000 </r>
       <r>   14.5867   -0.0000 </r>
       <r>   14.5867   -0.0000 </r>
       <r>   21.4733    0.0000 </r>
       <r>   21.4733    0.0000 </r>
       <r>   23.0093    0.0000 </r>
       <r>   23.5796    0.0000 </r>
       <r>   23.5819    0.0000 </r>
       <r>   24.7064    0.0000 </r>
      </set>
      <set comment="kpoint 8">
       <r>  -30.6818    1.0000 </r>
       <r>  -30.6818    1.0000 </r>
       <r>  -30.6249    1.0000 </r>
       <r>  -30.6249    1.0000 </r>
       <r>  -30.5363    1.0000 </r>
       <r>  -30.4455    1.0000 </r>
       <r>  -30.3657    1.0000 </r>
       <r>  -30.3657    1.0000 </r>
       <r>  -30.1958    1.0000 </r>
       <r>  -30.1950    1.0000 </r>
       <r>  -30.1594    1.0000 </r>
       <r>  -30.1592    1.0000 </r>
       <r>    6.9159    1.0000 </r>
       <r>    7.1077    1.0000 </r>
       <r>    7.6352    1.0000 </r>
       <r>    7.6352    1.0000 </r>
       <r>    7.9318    1.0000 </r>
       <r>    8.2383    1.0000 </r>
       <r>    8.7862    1.0000 </r>
       <r>    8.7862    1.0000 </r>
       <r>    9.3536    1.0000 </r>
       <r>    9.3536    1.0000 </r>
       <r>   10.8867    1.0000 </r>
       <r>   11.0780    1.0000 </r>
       <r>   11.5102    1.0000 </r>
       <r>   11.6583    1.0000 </r>
       <r>   11.9224    1.0000 </r>
       <r>   11.9895    1.0000 </r>
       <r>   11.9895    1.0000 </r>
       <r>   12.0940    1.0000 </r>
       <r>   13.0634   -0.0000 </r>
       <r>   13.2453   -0.0000 </r>
       <r>   14.5870   -0.0000 </r>
       <r>   14.5870   -0.0000 </r>
       <r>   22.2866    0.0000 </r>
       <r>   22.2867    0.0000 </r>
       <r>   22.9880    0.0000 </r>
       <r>   23.0028    0.0000 </r>
       <r>   23.0710    0.0000 </r>
       <r>   24.5647    0.0000 </r>
      </set>
      <set comment="kpoint 9">
       <r>  -30.9112    1.0000 </r>
       <r>  -30.9066    1.0000 </r>
       <r>  -30.9066    1.0000 </r>
       <r>  -30.3958    1.0000 </r>
       <r>  -30.3676    1.0000 </r>
       <r>  -30.3676    1.0000 </r>
       <r>  -30.3481    1.0000 </r>
       <r>  -30.3481    1.0000 </r>
       <r>  -30.3459    1.0000 </r>
       <r>  -30.0535    1.0000 </r>
       <r>  -30.0084    1.0000 </r>
       <r>  -29.9984    1.0000 </r>
       <r>    4.8908    1.0000 </r>
       <r>    6.3762    1.0000 </r>
       <r>    6.3762    1.0000 </r>
       <r>    6.3821    1.0000 </r>
       <r>    6.8233    1.0000 </r>
       <r>    6.8233    1.0000 </r>
       <r>    6.8611    1.0000 </r>
       <r>    9.7773    1.0000 </r>
       <r>   10.0183    1.0000 </r>
       <r>   10.0486    1.0000 </r>
       <r>   12.1766    1.0011 </r>
       <r>   12.3004    1.0351 </r>
       <r>   13.3478   -0.0000 </r>
       <r>   13.4966   -0.0000 </r>
       <r>   13.4966   -0.0000 </r>
       <r>   13.7826   -0.0000 </r>
       <r>   13.9030   -0.0000 </r>
       <r>   13.9030   -0.0000 </r>
       <r>   14.4582   -0.0000 </r>
       <r>   14.4582   -0.0000 </r>
       <r>   14.5098   -0.0000 </r>
       <r>   16.5810    0.0000 </r>
       <r>   16.5810    0.0000 </r>
       <r>   17.4652    0.0000 </r>
       <r>   22.9900    0.0000 </r>
       <r>   24.7903    0.0000 </r>
       <r>   25.7934    0.0000 </r>
       <r>   26.3077    0.0000 </r>
      </set>
      <set comment="kpoint 10">
       <r>  -30.8907    1.0000 </r>
       <r>  -30.8881    1.0000 </r>
       <r>  -30.8767    1.0000 </r>
       <r>  -30.4237    1.0000 </r>
       <r>  -30.3901    1.0000 </r>
       <r>  -30.3532    1.0000 </r>
       <r>  -30.3483    1.0000 </r>
       <r>  -30.3402    1.0000 </r>
       <r>  -30.3342    1.0000 </r>
       <r>  -30.0967    1.0000 </r>
       <r>  -30.0224    1.0000 </r>
       <r>  -30.0059    1.0000 </r>
       <r>    5.1008    1.0000 </r>
       <r>    6.5003    1.0000 </r>
       <r>    6.5208    1.0000 </r>
       <r>    6.5326    1.0000 </r>
       <r>    6.9166    1.0000 </r>
       <r>    6.9779    1.0000 </r>
       <r>    7.0274    1.0000 </r>
       <r>    9.6440    1.0000 </r>
       <r>   10.1182    1.0000 </r>
       <r>   10.1531    1.0000 </r>
       <r>   12.0336    1.0000 </r>
       <r>   12.3513    0.9811 </r>
       <r>   12.7245   -0.0001 </r>
       <r>   12.7262   -0.0001 </r>
       <r>   13.1436   -0.0000 </r>
       <r>   13.5543   -0.0000 </r>
       <r>   13.6718   -0.0000 </r>
       <r>   13.7807   -0.0000 </r>
       <r>   14.2413   -0.0000 </r>
       <r>   14.4488   -0.0000 </r>
       <r>   14.4630   -0.0000 </r>
       <r>   15.9554    0.0000 </r>
       <r>   17.4369    0.0000 </r>
       <r>   18.2252    0.0000 </r>
       <r>   22.9912    0.0000 </r>
       <r>   24.2586    0.0000 </r>
       <r>   25.2377    0.0000 </r>
       <r>   26.1138    0.0000 </r>
      </set>
      <set comment="kpoint 11">
       <r>  -30.8612    1.0000 </r>
       <r>  -30.8608    1.0000 </r>
       <r>  -30.8330    1.0000 </r>
       <r>  -30.4579    1.0000 </r>
       <r>  -30.4219    1.0000 </r>
       <r>  -30.3489    1.0000 </r>
       <r>  -30.3380    1.0000 </r>
       <r>  -30.3323    1.0000 </r>
       <r>  -30.3139    1.0000 </r>
       <r>  -30.1531    1.0000 </r>
       <r>  -30.0427    1.0000 </r>
       <r>  -30.0223    1.0000 </r>
       <r>    5.4039    1.0000 </r>
       <r>    6.6726    1.0000 </r>
       <r>    6.7218    1.0000 </r>
       <r>    6.7543    1.0000 </r>
       <r>    7.0545    1.0000 </r>
       <r>    7.2073    1.0000 </r>
       <r>    7.2680    1.0000 </r>
       <r>    9.4375    1.0000 </r>
       <r>   10.2868    1.0000 </r>
       <r>   10.3040    1.0000 </r>
       <r>   11.8192    1.0000 </r>
       <r>   11.9502    1.0000 </r>
       <r>   12.0214    1.0000 </r>
       <r>   12.4518    0.3042 </r>
       <r>   12.6852   -0.0008 </r>
       <r>   13.2393   -0.0000 </r>
       <r>   13.3486   -0.0000 </r>
       <r>   13.5267   -0.0000 </r>
       <r>   13.9963   -0.0000 </r>
       <r>   14.4411   -0.0000 </r>
       <r>   14.4415   -0.0000 </r>
       <r>   15.2243    0.0000 </r>
       <r>   18.3241    0.0000 </r>
       <r>   19.0815    0.0000 </r>
       <r>   23.0100    0.0000 </r>
       <r>   23.7695    0.0000 </r>
       <r>   24.8296    0.0000 </r>
       <r>   25.7948    0.0000 </r>
      </set>
      <set comment="kpoint 12">
       <r>  -30.8269    1.0000 </r>
       <r>  -30.8226    1.0000 </r>
       <r>  -30.7768    1.0000 </r>
       <r>  -30.4977    1.0000 </r>
       <r>  -30.4621    1.0000 </r>
       <r>  -30.3495    1.0000 </r>
       <r>  -30.3383    1.0000 </r>
       <r>  -30.3059    1.0000 </r>
       <r>  -30.2878    1.0000 </r>
       <r>  -30.2208    1.0000 </r>
       <r>  -30.0685    1.0000 </r>
       <r>  -30.0464    1.0000 </r>
       <r>    5.7836    1.0000 </r>
       <r>    6.8727    1.0000 </r>
       <r>    6.9740    1.0000 </r>
       <r>    7.0228    1.0000 </r>
       <r>    7.2346    1.0000 </r>
       <r>    7.5079    1.0000 </r>
       <r>    7.5721    1.0000 </r>
       <r>    9.1807    1.0000 </r>
       <r>   10.4803    1.0000 </r>
       <r>   10.5155    1.0000 </r>
       <r>   11.2066    1.0000 </r>
       <r>   11.3076    1.0000 </r>
       <r>   11.5912    1.0000 </r>
       <r>   12.1539    1.0004 </r>
       <r>   12.5862   -0.0239 </r>
       <r>   12.8668   -0.0000 </r>
       <r>   12.9643   -0.0000 </r>
       <r>   13.1605   -0.0000 </r>
       <r>   13.7271   -0.0000 </r>
       <r>   14.4312   -0.0000 </r>
       <r>   14.4368   -0.0000 </r>
       <r>   14.5186   -0.0000 </r>
       <r>   19.2024    0.0000 </r>
       <r>   19.9707    0.0000 </r>
       <r>   22.9894    0.0000 </r>
       <r>   23.3558    0.0000 </r>
       <r>   24.5545    0.0000 </r>
       <r>   25.3337    0.0000 </r>
      </set>
      <set comment="kpoint 13">
       <r>  -30.7864    1.0000 </r>
       <r>  -30.7777    1.0000 </r>
       <r>  -30.7097    1.0000 </r>
       <r>  -30.5421    1.0000 </r>
       <r>  -30.5089    1.0000 </r>
       <r>  -30.3497    1.0000 </r>
       <r>  -30.3403    1.0000 </r>
       <r>  -30.2976    1.0000 </r>
       <r>  -30.2750    1.0000 </r>
       <r>  -30.2570    1.0000 </r>
       <r>  -30.0988    1.0000 </r>
       <r>  -30.0764    1.0000 </r>
       <r>    6.2112    1.0000 </r>
       <r>    7.0663    1.0000 </r>
       <r>    7.2552    1.0000 </r>
       <r>    7.3078    1.0000 </r>
       <r>    7.4532    1.0000 </r>
       <r>    7.8754    1.0000 </r>
       <r>    7.9265    1.0000 </r>
       <r>    8.8918    1.0000 </r>
       <r>   10.5081    1.0000 </r>
       <r>   10.6161    1.0000 </r>
       <r>   10.6246    1.0000 </r>
       <r>   10.7933    1.0000 </r>
       <r>   11.4527    1.0000 </r>
       <r>   11.6001    1.0000 </r>
       <r>   12.4869    0.0848 </r>
       <r>   12.5677   -0.0319 </r>
       <r>   12.7389   -0.0001 </r>
       <r>   12.7490   -0.0000 </r>
       <r>   13.3486   -0.0000 </r>
       <r>   13.9729   -0.0000 </r>
       <r>   14.4272   -0.0000 </r>
       <r>   14.4335   -0.0000 </r>
       <r>   20.0433    0.0000 </r>
       <r>   20.8579    0.0000 </r>
       <r>   22.9439    0.0000 </r>
       <r>   23.0055    0.0000 </r>
       <r>   24.2182    0.0000 </r>
       <r>   25.1739    0.0000 </r>
      </set>
      <set comment="kpoint 14">
       <r>  -30.7414    1.0000 </r>
       <r>  -30.7278    1.0000 </r>
       <r>  -30.6338    1.0000 </r>
       <r>  -30.5893    1.0000 </r>
       <r>  -30.5603    1.0000 </r>
       <r>  -30.3805    1.0000 </r>
       <r>  -30.3491    1.0000 </r>
       <r>  -30.3429    1.0000 </r>
       <r>  -30.2409    1.0000 </r>
       <r>  -30.2224    1.0000 </r>
       <r>  -30.1325    1.0000 </r>
       <r>  -30.1107    1.0000 </r>
       <r>    6.6393    1.0000 </r>
       <r>    7.1972    1.0000 </r>
       <r>    7.5202    1.0000 </r>
       <r>    7.5595    1.0000 </r>
       <r>    7.7047    1.0000 </r>
       <r>    8.3054    1.0000 </r>
       <r>    8.3224    1.0000 </r>
       <r>    8.5869    1.0000 </r>
       <r>    9.8652    1.0000 </r>
       <r>    9.9631    1.0000 </r>
       <r>   10.6375    1.0000 </r>
       <r>   11.1018    1.0000 </r>
       <r>   11.1168    1.0000 </r>
       <r>   11.5582    1.0000 </r>
       <r>   12.1680    1.0007 </r>
       <r>   12.2237    1.0070 </r>
       <r>   12.3037    1.0354 </r>
       <r>   12.8413   -0.0000 </r>
       <r>   12.9358   -0.0000 </r>
       <r>   13.6278   -0.0000 </r>
       <r>   14.4264   -0.0000 </r>
       <r>   14.4309   -0.0000 </r>
       <r>   20.8184    0.0000 </r>
       <r>   21.7147    0.0000 </r>
       <r>   22.5470    0.0000 </r>
       <r>   23.0485    0.0000 </r>
       <r>   23.7943    0.0000 </r>
       <r>   25.0862    0.0000 </r>
      </set>
      <set comment="kpoint 15">
       <r>  -30.6945    1.0000 </r>
       <r>  -30.6786    1.0000 </r>
       <r>  -30.6344    1.0000 </r>
       <r>  -30.6132    1.0000 </r>
       <r>  -30.5517    1.0000 </r>
       <r>  -30.4663    1.0000 </r>
       <r>  -30.3477    1.0000 </r>
       <r>  -30.3455    1.0000 </r>
       <r>  -30.2049    1.0000 </r>
       <r>  -30.1854    1.0000 </r>
       <r>  -30.1683    1.0000 </r>
       <r>  -30.1476    1.0000 </r>
       <r>    6.9936    1.0000 </r>
       <r>    7.1899    1.0000 </r>
       <r>    7.6946    1.0000 </r>
       <r>    7.7085    1.0000 </r>
       <r>    7.9828    1.0000 </r>
       <r>    8.2800    1.0000 </r>
       <r>    8.7624    1.0000 </r>
       <r>    8.7907    1.0000 </r>
       <r>    9.2926    1.0000 </r>
       <r>    9.3624    1.0000 </r>
       <r>   10.6203    1.0000 </r>
       <r>   10.7556    1.0000 </r>
       <r>   11.4808    1.0000 </r>
       <r>   11.8795    1.0000 </r>
       <r>   11.8851    1.0000 </r>
       <r>   11.9894    1.0000 </r>
       <r>   12.0097    1.0000 </r>
       <r>   12.3298    1.0231 </r>
       <r>   13.1431   -0.0000 </r>
       <r>   13.3701   -0.0000 </r>
       <r>   14.4272   -0.0000 </r>
       <r>   14.4288   -0.0000 </r>
       <r>   21.4996    0.0000 </r>
       <r>   22.0668    0.0000 </r>
       <r>   22.5241    0.0000 </r>
       <r>   23.0553    0.0000 </r>
       <r>   23.2259    0.0000 </r>
       <r>   24.9323    0.0000 </r>
      </set>
      <set comment="kpoint 16">
       <r>  -30.8705    1.0000 </r>
       <r>  -30.8626    1.0000 </r>
       <r>  -30.8626    1.0000 </r>
       <r>  -30.4572    1.0000 </r>
       <r>  -30.3751    1.0000 </r>
       <r>  -30.3751    1.0000 </r>
       <r>  -30.3326    1.0000 </r>
       <r>  -30.3326    1.0000 </r>
       <r>  -30.3261    1.0000 </r>
       <r>  -30.1444    1.0000 </r>
       <r>  -30.0367    1.0000 </r>
       <r>  -30.0056    1.0000 </r>
       <r>    5.3019    1.0000 </r>
       <r>    6.6318    1.0000 </r>
       <r>    6.6584    1.0000 </r>
       <r>    6.6584    1.0000 </r>
       <r>    7.0674    1.0000 </r>
       <r>    7.0674    1.0000 </r>
       <r>    7.2069    1.0000 </r>
       <r>    9.5648    1.0000 </r>
       <r>   10.1762    1.0000 </r>
       <r>   10.2301    1.0000 </r>
       <r>   11.9718    1.0000 </r>
       <r>   12.3162    1.0334 </r>
       <r>   12.3576    0.9611 </r>
       <r>   12.3762    0.8798 </r>
       <r>   12.3762    0.8798 </r>
       <r>   13.3456   -0.0000 </r>
       <r>   13.6024   -0.0000 </r>
       <r>   13.6024   -0.0000 </r>
       <r>   14.2084   -0.0000 </r>
       <r>   14.2084   -0.0000 </r>
       <r>   14.3321   -0.0000 </r>
       <r>   16.7859    0.0000 </r>
       <r>   16.7859    0.0000 </r>
       <r>   18.8733    0.0000 </r>
       <r>   22.9917    0.0000 </r>
       <r>   23.5737    0.0000 </r>
       <r>   25.7172    0.0000 </r>
       <r>   26.8300    0.0000 </r>
      </set>
      <set comment="kpoint 17">
       <r>  -30.8420    1.0000 </r>
       <r>  -30.8412    1.0000 </r>
       <r>  -30.8251    1.0000 </r>
       <r>  -30.4946    1.0000 </r>
       <r>  -30.4063    1.0000 </r>
       <r>  -30.3535    1.0000 </r>
       <r>  -30.3307    1.0000 </r>
       <r>  -30.3162    1.0000 </r>
       <r>  -30.3099    1.0000 </r>
       <r>  -30.2034    1.0000 </r>
       <r>  -30.0574    1.0000 </r>
       <r>  -30.0151    1.0000 </r>
       <r>    5.5926    1.0000 </r>
       <r>    6.8026    1.0000 </r>
       <r>    6.8330    1.0000 </r>
       <r>    6.8828    1.0000 </r>
       <r>    7.1999    1.0000 </r>
       <r>    7.2909    1.0000 </r>
       <r>    7.4559    1.0000 </r>
       <r>    9.4055    1.0000 </r>
       <r>   10.3140    1.0000 </r>
       <r>   10.3353    1.0000 </r>
       <r>   11.6271    1.0000 </r>
       <r>   11.7675    1.0000 </r>
       <r>   11.8144    1.0000 </r>
       <r>   11.9453    1.0000 </r>
       <r>   12.4587    0.2533 </r>
       <r>   13.0667   -0.0000 </r>
       <r>   13.3235   -0.0000 </r>
       <r>   13.4112   -0.0000 </r>
       <r>   13.9191   -0.0000 </r>
       <r>   14.1821   -0.0000 </r>
       <r>   14.2426   -0.0000 </r>
       <r>   16.0297    0.0000 </r>
       <r>   17.6294    0.0000 </r>
       <r>   19.6490    0.0000 </r>
       <r>   22.9532    0.0000 </r>
       <r>   23.0050    0.0000 </r>
       <r>   25.3469    0.0000 </r>
       <r>   25.7312    0.0000 </r>
      </set>
      <set comment="kpoint 18">
       <r>  -30.8156    1.0000 </r>
       <r>  -30.8038    1.0000 </r>
       <r>  -30.7766    1.0000 </r>
       <r>  -30.5348    1.0000 </r>
       <r>  -30.4457    1.0000 </r>
       <r>  -30.3280    1.0000 </r>
       <r>  -30.3263    1.0000 </r>
       <r>  -30.3107    1.0000 </r>
       <r>  -30.2808    1.0000 </r>
       <r>  -30.2711    1.0000 </r>
       <r>  -30.0838    1.0000 </r>
       <r>  -30.0338    1.0000 </r>
       <r>    5.9570    1.0000 </r>
       <r>    7.0303    1.0000 </r>
       <r>    7.0358    1.0000 </r>
       <r>    7.1560    1.0000 </r>
       <r>    7.3731    1.0000 </r>
       <r>    7.5829    1.0000 </r>
       <r>    7.7549    1.0000 </r>
       <r>    9.1843    1.0000 </r>
       <r>   10.4386    1.0000 </r>
       <r>   10.5252    1.0000 </r>
       <r>   10.9177    1.0000 </r>
       <r>   11.1566    1.0000 </r>
       <r>   11.4727    1.0000 </r>
       <r>   11.6395    1.0000 </r>
       <r>   12.6259   -0.0085 </r>
       <r>   12.7370   -0.0001 </r>
       <r>   12.9726   -0.0000 </r>
       <r>   13.0900   -0.0000 </r>
       <r>   13.6123   -0.0000 </r>
       <r>   14.1653   -0.0000 </r>
       <r>   14.1901   -0.0000 </r>
       <r>   15.2857    0.0000 </r>
       <r>   18.4502    0.0000 </r>
       <r>   20.4805    0.0000 </r>
       <r>   22.4387    0.0000 </r>
       <r>   22.9912    0.0000 </r>
       <r>   24.4485    0.0000 </r>
       <r>   24.8836    0.0000 </r>
      </set>
      <set comment="kpoint 19">
       <r>  -30.7842    1.0000 </r>
       <r>  -30.7602    1.0000 </r>
       <r>  -30.7182    1.0000 </r>
       <r>  -30.5761    1.0000 </r>
       <r>  -30.4917    1.0000 </r>
       <r>  -30.3451    1.0000 </r>
       <r>  -30.3246    1.0000 </r>
       <r>  -30.3088    1.0000 </r>
       <r>  -30.2947    1.0000 </r>
       <r>  -30.2466    1.0000 </r>
       <r>  -30.1148    1.0000 </r>
       <r>  -30.0604    1.0000 </r>
       <r>    6.3695    1.0000 </r>
       <r>    7.2313    1.0000 </r>
       <r>    7.3027    1.0000 </r>
       <r>    7.4480    1.0000 </r>
       <r>    7.5829    1.0000 </r>
       <r>    7.9373    1.0000 </r>
       <r>    8.0793    1.0000 </r>
       <r>    8.9246    1.0000 </r>
       <r>   10.2615    1.0000 </r>
       <r>   10.4760    1.0000 </r>
       <r>   10.5347    1.0000 </r>
       <r>   10.7934    1.0000 </r>
       <r>   11.0041    1.0000 </r>
       <r>   11.5667    1.0000 </r>
       <r>   12.3979    0.7423 </r>
       <r>   12.5958   -0.0195 </r>
       <r>   12.6904   -0.0007 </r>
       <r>   12.8390   -0.0000 </r>
       <r>   13.2608   -0.0000 </r>
       <r>   14.1545   -0.0000 </r>
       <r>   14.1616   -0.0000 </r>
       <r>   14.6353   -0.0000 </r>
       <r>   19.2217    0.0000 </r>
       <r>   21.3153    0.0000 </r>
       <r>   21.9852    0.0000 </r>
       <r>   22.9910    0.0000 </r>
       <r>   24.5891    0.0000 </r>
       <r>   25.4770    0.0000 </r>
      </set>
      <set comment="kpoint 20">
       <r>  -30.7491    1.0000 </r>
       <r>  -30.7134    1.0000 </r>
       <r>  -30.6515    1.0000 </r>
       <r>  -30.6161    1.0000 </r>
       <r>  -30.5420    1.0000 </r>
       <r>  -30.4227    1.0000 </r>
       <r>  -30.3206    1.0000 </r>
       <r>  -30.3097    1.0000 </r>
       <r>  -30.2599    1.0000 </r>
       <r>  -30.2089    1.0000 </r>
       <r>  -30.1493    1.0000 </r>
       <r>  -30.0932    1.0000 </r>
       <r>    6.7874    1.0000 </r>
       <r>    7.3617    1.0000 </r>
       <r>    7.5867    1.0000 </r>
       <r>    7.7069    1.0000 </r>
       <r>    7.8221    1.0000 </r>
       <r>    8.3474    1.0000 </r>
       <r>    8.4050    1.0000 </r>
       <r>    8.6450    1.0000 </r>
       <r>    9.6745    1.0000 </r>
       <r>    9.9322    1.0000 </r>
       <r>   10.4025    1.0000 </r>
       <r>   10.6060    1.0000 </r>
       <r>   11.1087    1.0000 </r>
       <r>   11.6965    1.0000 </r>
       <r>   12.1161    1.0000 </r>
       <r>   12.2543    1.0170 </r>
       <r>   12.2672    1.0227 </r>
       <r>   12.8458   -0.0000 </r>
       <r>   13.0898   -0.0000 </r>
       <r>   14.1164   -0.0000 </r>
       <r>   14.1474   -0.0000 </r>
       <r>   14.1479   -0.0000 </r>
       <r>   19.9202    0.0000 </r>
       <r>   21.5009    0.0000 </r>
       <r>   22.1878    0.0000 </r>
       <r>   22.9943    0.0000 </r>
       <r>   24.1714    0.0000 </r>
       <r>   25.3745    0.0000 </r>
      </set>
      <set comment="kpoint 21">
       <r>  -30.7121    1.0000 </r>
       <r>  -30.6843    1.0000 </r>
       <r>  -30.6346    1.0000 </r>
       <r>  -30.5938    1.0000 </r>
       <r>  -30.5785    1.0000 </r>
       <r>  -30.5014    1.0000 </r>
       <r>  -30.3164    1.0000 </r>
       <r>  -30.3125    1.0000 </r>
       <r>  -30.2232    1.0000 </r>
       <r>  -30.1859    1.0000 </r>
       <r>  -30.1694    1.0000 </r>
       <r>  -30.1302    1.0000 </r>
       <r>    7.1422    1.0000 </r>
       <r>    7.3478    1.0000 </r>
       <r>    7.8053    1.0000 </r>
       <r>    7.8519    1.0000 </r>
       <r>    8.0835    1.0000 </r>
       <r>    8.3607    1.0000 </r>
       <r>    8.7310    1.0000 </r>
       <r>    8.7911    1.0000 </r>
       <r>    9.1958    1.0000 </r>
       <r>    9.3745    1.0000 </r>
       <r>   10.3168    1.0000 </r>
       <r>   10.3625    1.0000 </r>
       <r>   11.4638    1.0000 </r>
       <r>   11.8528    1.0000 </r>
       <r>   11.9728    1.0000 </r>
       <r>   12.0004    1.0000 </r>
       <r>   12.0236    1.0000 </r>
       <r>   12.4046    0.6922 </r>
       <r>   13.3774   -0.0000 </r>
       <r>   13.7109   -0.0000 </r>
       <r>   14.1429   -0.0000 </r>
       <r>   14.1433   -0.0000 </r>
       <r>   20.5302    0.0000 </r>
       <r>   21.0519    0.0000 </r>
       <r>   22.9497    0.0000 </r>
       <r>   23.0326    0.0000 </r>
       <r>   23.6329    0.0000 </r>
       <r>   25.2560    0.0000 </r>
      </set>
      <set comment="kpoint 22">
       <r>  -30.8132    1.0000 </r>
       <r>  -30.8132    1.0000 </r>
       <r>  -30.8127    1.0000 </r>
       <r>  -30.5340    1.0000 </r>
       <r>  -30.3839    1.0000 </r>
       <r>  -30.3839    1.0000 </r>
       <r>  -30.3044    1.0000 </r>
       <r>  -30.3044    1.0000 </r>
       <r>  -30.2982    1.0000 </r>
       <r>  -30.2637    1.0000 </r>
       <r>  -30.0788    1.0000 </r>
       <r>  -30.0170    1.0000 </r>
       <r>    5.8649    1.0000 </r>
       <r>    6.9397    1.0000 </r>
       <r>    7.0613    1.0000 </r>
       <r>    7.0613    1.0000 </r>
       <r>    7.4151    1.0000 </r>
       <r>    7.4151    1.0000 </r>
       <r>    7.7062    1.0000 </r>
       <r>    9.3155    1.0000 </r>
       <r>   10.3771    1.0000 </r>
       <r>   10.4057    1.0000 </r>
       <r>   11.2356    1.0000 </r>
       <r>   11.2356    1.0000 </r>
       <r>   11.3886    1.0000 </r>
       <r>   11.7265    1.0000 </r>
       <r>   12.5684   -0.0316 </r>
       <r>   12.8291   -0.0000 </r>
       <r>   13.1995   -0.0000 </r>
       <r>   13.1995   -0.0000 </r>
       <r>   13.8523   -0.0000 </r>
       <r>   13.8523   -0.0000 </r>
       <r>   14.0668   -0.0000 </r>
       <r>   16.8340    0.0000 </r>
       <r>   16.8340    0.0000 </r>
       <r>   20.3541    0.0000 </r>
       <r>   22.2473    0.0000 </r>
       <r>   23.0083    0.0000 </r>
       <r>   25.7387    0.0000 </r>
       <r>   25.8890    0.0000 </r>
      </set>
      <set comment="kpoint 23">
       <r>  -30.7974    1.0000 </r>
       <r>  -30.7768    1.0000 </r>
       <r>  -30.7752    1.0000 </r>
       <r>  -30.5733    1.0000 </r>
       <r>  -30.4225    1.0000 </r>
       <r>  -30.3560    1.0000 </r>
       <r>  -30.3307    1.0000 </r>
       <r>  -30.2978    1.0000 </r>
       <r>  -30.2851    1.0000 </r>
       <r>  -30.2715    1.0000 </r>
       <r>  -30.1061    1.0000 </r>
       <r>  -30.0287    1.0000 </r>
       <r>    6.2067    1.0000 </r>
       <r>    7.1361    1.0000 </r>
       <r>    7.2679    1.0000 </r>
       <r>    7.3410    1.0000 </r>
       <r>    7.5783    1.0000 </r>
       <r>    7.6948    1.0000 </r>
       <r>    7.9935    1.0000 </r>
       <r>    9.1598    1.0000 </r>
       <r>   10.4043    1.0000 </r>
       <r>   10.5713    1.0000 </r>
       <r>   10.5762    1.0000 </r>
       <r>   10.8203    1.0000 </r>
       <r>   10.9182    1.0000 </r>
       <r>   11.5999    1.0000 </r>
       <r>   12.5475   -0.0353 </r>
       <r>   12.7807   -0.0000 </r>
       <r>   12.9005   -0.0000 </r>
       <r>   12.9519   -0.0000 </r>
       <r>   13.4949   -0.0000 </r>
       <r>   13.8119   -0.0000 </r>
       <r>   13.9394   -0.0000 </r>
       <r>   16.0488    0.0000 </r>
       <r>   17.6099    0.0000 </r>
       <r>   21.1015    0.0000 </r>
       <r>   21.6605    0.0000 </r>
       <r>   22.9935    0.0000 </r>
       <r>   25.2893    0.0000 </r>
       <r>   26.5310    0.0000 </r>
      </set>
      <set comment="kpoint 24">
       <r>  -30.7778    1.0000 </r>
       <r>  -30.7360    1.0000 </r>
       <r>  -30.7282    1.0000 </r>
       <r>  -30.6100    1.0000 </r>
       <r>  -30.4674    1.0000 </r>
       <r>  -30.4013    1.0000 </r>
       <r>  -30.3234    1.0000 </r>
       <r>  -30.2906    1.0000 </r>
       <r>  -30.2771    1.0000 </r>
       <r>  -30.2337    1.0000 </r>
       <r>  -30.1381    1.0000 </r>
       <r>  -30.0497    1.0000 </r>
       <r>    6.5954    1.0000 </r>
       <r>    7.3873    1.0000 </r>
       <r>    7.4651    1.0000 </r>
       <r>    7.6446    1.0000 </r>
       <r>    7.7765    1.0000 </r>
       <r>    8.0299    1.0000 </r>
       <r>    8.2842    1.0000 </r>
       <r>    8.9543    1.0000 </r>
       <r>    9.9662    1.0000 </r>
       <r>   10.3602    1.0000 </r>
       <r>   10.4012    1.0000 </r>
       <r>   10.4274    1.0000 </r>
       <r>   10.8166    1.0000 </r>
       <r>   11.5525    1.0000 </r>
       <r>   12.2568    1.0180 </r>
       <r>   12.5583   -0.0346 </r>
       <r>   12.6032   -0.0163 </r>
       <r>   13.0633   -0.0000 </r>
       <r>   13.1206   -0.0000 </r>
       <r>   13.7895   -0.0000 </r>
       <r>   13.8574   -0.0000 </r>
       <r>   15.3387    0.0000 </r>
       <r>   18.3361    0.0000 </r>
       <r>   21.0445    0.0000 </r>
       <r>   21.9902    0.0000 </r>
       <r>   22.9905    0.0000 </r>
       <r>   24.6908    0.0000 </r>
       <r>   25.2517    0.0000 </r>
      </set>
      <set comment="kpoint 25">
       <r>  -30.7545    1.0000 </r>
       <r>  -30.6997    1.0000 </r>
       <r>  -30.6731    1.0000 </r>
       <r>  -30.6352    1.0000 </r>
       <r>  -30.5167    1.0000 </r>
       <r>  -30.4733    1.0000 </r>
       <r>  -30.2876    1.0000 </r>
       <r>  -30.2837    1.0000 </r>
       <r>  -30.2737    1.0000 </r>
       <r>  -30.1932    1.0000 </r>
       <r>  -30.1736    1.0000 </r>
       <r>  -30.0784    1.0000 </r>
       <r>    6.9953    1.0000 </r>
       <r>    7.5926    1.0000 </r>
       <r>    7.6763    1.0000 </r>
       <r>    7.9188    1.0000 </r>
       <r>    7.9979    1.0000 </r>
       <r>    8.4067    1.0000 </r>
       <r>    8.5353    1.0000 </r>
       <r>    8.7199    1.0000 </r>
       <r>    9.4449    1.0000 </r>
       <r>    9.8769    1.0000 </r>
       <r>   10.1232    1.0000 </r>
       <r>   10.2164    1.0000 </r>
       <r>   11.1104    1.0000 </r>
       <r>   11.6729    1.0000 </r>
       <r>   12.0190    1.0000 </r>
       <r>   12.2092    1.0042 </r>
       <r>   12.2318    1.0090 </r>
       <r>   12.7212   -0.0001 </r>
       <r>   13.3979   -0.0000 </r>
       <r>   13.7781   -0.0000 </r>
       <r>   13.8095   -0.0000 </r>
       <r>   14.7304   -0.0000 </r>
       <r>   18.9951    0.0000 </r>
       <r>   20.5736    0.0000 </r>
       <r>   22.7726    0.0000 </r>
       <r>   22.9929    0.0000 </r>
       <r>   24.6341    0.0000 </r>
       <r>   25.3523    0.0000 </r>
      </set>
      <set comment="kpoint 26">
       <r>  -30.7283    1.0000 </r>
       <r>  -30.7026    1.0000 </r>
       <r>  -30.6152    1.0000 </r>
       <r>  -30.6112    1.0000 </r>
       <r>  -30.5677    1.0000 </r>
       <r>  -30.5439    1.0000 </r>
       <r>  -30.2779    1.0000 </r>
       <r>  -30.2742    1.0000 </r>
       <r>  -30.2498    1.0000 </r>
       <r>  -30.2113    1.0000 </r>
       <r>  -30.1523    1.0000 </r>
       <r>  -30.1133    1.0000 </r>
       <r>    7.3473    1.0000 </r>
       <r>    7.5666    1.0000 </r>
       <r>    7.9481    1.0000 </r>
       <r>    8.0578    1.0000 </r>
       <r>    8.2315    1.0000 </r>
       <r>    8.4745    1.0000 </r>
       <r>    8.7197    1.0000 </r>
       <r>    8.7658    1.0000 </r>
       <r>    9.1082    1.0000 </r>
       <r>    9.3824    1.0000 </r>
       <r>    9.9902    1.0000 </r>
       <r>   10.0506    1.0000 </r>
       <r>   11.4455    1.0000 </r>
       <r>   11.8152    1.0000 </r>
       <r>   11.9142    1.0000 </r>
       <r>   11.9467    1.0000 </r>
       <r>   11.9931    1.0000 </r>
       <r>   12.3149    1.0339 </r>
       <r>   13.7760   -0.0000 </r>
       <r>   13.7804   -0.0000 </r>
       <r>   13.7849   -0.0000 </r>
       <r>   14.2183   -0.0000 </r>
       <r>   19.5789    0.0000 </r>
       <r>   20.0960    0.0000 </r>
       <r>   22.9990    0.0000 </r>
       <r>   23.5152    0.0000 </r>
       <r>   24.1382    0.0000 </r>
       <r>   25.2915    0.0000 </r>
      </set>
      <set comment="kpoint 27">
       <r>  -30.7716    1.0000 </r>
       <r>  -30.7716    1.0000 </r>
       <r>  -30.7438    1.0000 </r>
       <r>  -30.6089    1.0000 </r>
       <r>  -30.3951    1.0000 </r>
       <r>  -30.3934    1.0000 </r>
       <r>  -30.3934    1.0000 </r>
       <r>  -30.2642    1.0000 </r>
       <r>  -30.2610    1.0000 </r>
       <r>  -30.2610    1.0000 </r>
       <r>  -30.1344    1.0000 </r>
       <r>  -30.0332    1.0000 </r>
       <r>    6.5192    1.0000 </r>
       <r>    7.2975    1.0000 </r>
       <r>    7.5536    1.0000 </r>
       <r>    7.5536    1.0000 </r>
       <r>    7.8448    1.0000 </r>
       <r>    7.8448    1.0000 </r>
       <r>    8.2602    1.0000 </r>
       <r>    9.0865    1.0000 </r>
       <r>   10.2131    1.0000 </r>
       <r>   10.2131    1.0000 </r>
       <r>   10.3656    1.0000 </r>
       <r>   10.5952    1.0000 </r>
       <r>   10.6935    1.0000 </r>
       <r>   11.4969    1.0000 </r>
       <r>   12.3139    1.0342 </r>
       <r>   12.7193   -0.0002 </r>
       <r>   12.7193   -0.0002 </r>
       <r>   13.0549   -0.0000 </r>
       <r>   13.4170   -0.0000 </r>
       <r>   13.4170   -0.0000 </r>
       <r>   13.7268   -0.0000 </r>
       <r>   16.7873    0.0000 </r>
       <r>   16.7873    0.0000 </r>
       <r>   20.8734    0.0000 </r>
       <r>   21.9253    0.0000 </r>
       <r>   22.9905    0.0000 </r>
       <r>   25.6198    0.0000 </r>
       <r>   25.9296    0.0000 </r>
      </set>
      <set comment="kpoint 28">
       <r>  -30.7649    1.0000 </r>
       <r>  -30.7375    1.0000 </r>
       <r>  -30.7114    1.0000 </r>
       <r>  -30.6344    1.0000 </r>
       <r>  -30.4613    1.0000 </r>
       <r>  -30.4372    1.0000 </r>
       <r>  -30.3598    1.0000 </r>
       <r>  -30.2509    1.0000 </r>
       <r>  -30.2489    1.0000 </r>
       <r>  -30.2204    1.0000 </r>
       <r>  -30.1676    1.0000 </r>
       <r>  -30.0473    1.0000 </r>
       <r>    6.8749    1.0000 </r>
       <r>    7.5154    1.0000 </r>
       <r>    7.7498    1.0000 </r>
       <r>    7.8706    1.0000 </r>
       <r>    8.0316    1.0000 </r>
       <r>    8.1579    1.0000 </r>
       <r>    8.5167    1.0000 </r>
       <r>    8.9611    1.0000 </r>
       <r>    9.6650    1.0000 </r>
       <r>    9.8911    1.0000 </r>
       <r>   10.2080    1.0000 </r>
       <r>   10.2729    1.0000 </r>
[...]
        <r>  0.0020  0.0082  0.0061  0.0082  0.0909  0.0122  0.0826  0.0122  0.0000 </r>
       </set>
       <set comment="band 34">
        <r>  0.0023  0.0090  0.0207  0.0067  0.0878  0.0026  0.0831  0.0280  0.0060 </r>
        <r>  0.0008  0.0241  0.0070  0.0219  0.0298  0.0023  0.0282  0.0277  0.0178 </r>
        <r>  0.0008  0.0241  0.0070  0.0219  0.0298  0.0023  0.0282  0.0277  0.0178 </r>
        <r>  0.0023  0.0090  0.0207  0.0067  0.0878  0.0026  0.0831  0.0280  0.0060 </r>
       </set>
       <set comment="band 35">
        <r>  0.0008  0.0219  0.0070  0.0241  0.0298  0.0277  0.0282  0.0023  0.0178 </r>
        <r>  0.0023  0.0067  0.0207  0.0090  0.0878  0.0280  0.0831  0.0026  0.0060 </r>
        <r>  0.0023  0.0067  0.0207  0.0090  0.0878  0.0280  0.0831  0.0026  0.0060 </r>
        <r>  0.0008  0.0219  0.0070  0.0241  0.0298  0.0277  0.0282  0.0023  0.0178 </r>
       </set>
       <set comment="band 36">
        <r>  0.0003  0.0171  0.0178  0.0171  0.0576  0.0117  0.0643  0.0117  0.0000 </r>
        <r>  0.0003  0.0171  0.0178  0.0171  0.0576  0.0117  0.0643  0.0117  0.0000 </r>
        <r>  0.0003  0.0171  0.0178  0.0171  0.0576  0.0117  0.0643  0.0117  0.0000 </r>
        <r>  0.0003  0.0171  0.0178  0.0171  0.0576  0.0117  0.0643  0.0117  0.0000 </r>
       </set>
       <set comment="band 37">
        <r>  0.1081  0.0000  0.0014  0.0000  0.0352  0.0426  0.0001  0.0260  0.0000 </r>
        <r>  0.1221  0.0000  0.0015  0.0000  0.0254  0.0387  0.0001  0.0360  0.0000 </r>
        <r>  0.0768  0.0000  0.0007  0.0000  0.0416  0.0360  0.0000  0.0387  0.0000 </r>
        <r>  0.0849  0.0000  0.0012  0.0000  0.0378  0.0260  0.0001  0.0426  0.0000 </r>
       </set>
       <set comment="band 38">
        <r>  0.1665  0.0006  0.0044  0.0001  0.0575  0.0114  0.0002  0.0118  0.0000 </r>
        <r>  0.0336  0.0015  0.0009  0.0010  0.0115  0.0585  0.0000  0.0585  0.0000 </r>
        <r>  0.0277  0.0015  0.0009  0.0010  0.0112  0.0585  0.0000  0.0585  0.0000 </r>
        <r>  0.1314  0.0006  0.0044  0.0001  0.0575  0.0117  0.0002  0.0114  0.0000 </r>
       </set>
       <set comment="band 39">
        <r>  0.0113  0.0029  0.0007  0.0000  0.0350  0.0828  0.0000  0.0060  0.0000 </r>
        <r>  0.2657  0.0009  0.0078  0.0024  0.0058  0.0052  0.0002  0.0354  0.0000 </r>
        <r>  0.0255  0.0011  0.0002  0.0002  0.0817  0.0355  0.0000  0.0053  0.0000 </r>
        <r>  0.3150  0.0001  0.0036  0.0035  0.0052  0.0060  0.0001  0.0828  0.0000 </r>
       </set>
       <set comment="band 40">
        <r>  0.0276  0.0004  0.0013  0.0010  0.0097  0.0026  0.0000  0.0196  0.0000 </r>
        <r>  0.0286  0.0006  0.0005  0.0005  0.0196  0.0108  0.0000  0.0096  0.0000 </r>
        <r>  0.1529  0.0007  0.0020  0.0008  0.0026  0.0096  0.0001  0.0107  0.0000 </r>
        <r>  5.2973  0.0010  0.0011  0.0004  0.0107  0.0196  0.0000  0.0026  0.0000 </r>
       </set>
      </set>
      <set comment="kpoint 120">
       <set comment="band 1">
        <r>  0.0000  0.1270  0.0070  0.1753  0.0000  0.0000  0.0000  0.0000  0.0000 </r>
        <r>  0.0000  0.0072  0.1258  0.0167  0.0000  0.0000  0.0000  0.0000  0.0000 </r>
        <r>  0.0000  0.0173  0.1747  0.0069  0.0000  0.0000  0.0000  0.0000  0.0000 </r>
        <r>  0.0000  0.1758  0.0169  0.1266  0.0000  0.0000  0.0000  0.0000  0.0000 </r>
       </set>
       <set comment="band 2">
        <r>  0.0000  0.0778  0.0671  0.0156  0.0000  0.0000  0.0000  0.0000  0.0000 </r>
        <r>  0.0000  0.0672  0.0786  0.1649  0.0000  0.0000  0.0000  0.0000  0.0000 </r>
        <r>  0.0000  0.1643  0.0158  0.0674  0.0000  0.0000  0.0000  0.0000  0.0000 </r>
        <r>  0.0000  0.0155  0.1646  0.0785  0.0000  0.0000  0.0000  0.0000  0.0000 </r>
       </set>
       <set comment="band 3">
        <r>  0.0000  0.0395  0.1703  0.0535  0.0000  0.0000  0.0000  0.0000  0.0000 </r>
        <r>  0.0000  0.1699  0.0399  0.0628  0.0000  0.0000  0.0000  0.0000  0.0000 </r>
        <r>  0.0000  0.0627  0.0538  0.1700  0.0000  0.0000  0.0000  0.0000  0.0000 </r>
        <r>  0.0000  0.0530  0.0627  0.0392  0.0000  0.0000  0.0000  0.0000  0.0000 </r>
       </set>
       <set comment="band 4">
        <r>  0.0000  0.0814  0.0814  0.0814  0.0000  0.0000  0.0000  0.0000  0.0000 </r>
        <r>  0.0000  0.0814  0.0814  0.0814  0.0000  0.0000  0.0000  0.0000  0.0000 </r>
        <r>  0.0000  0.0814  0.0814  0.0814  0.0000  0.0000  0.0000  0.0000  0.0000 </r>
        <r>  0.0000  0.0814  0.0814  0.0814  0.0000  0.0000  0.0000  0.0000  0.0000 </r>
       </set>
       <set comment="band 5">
        <r>  0.0000  0.2073  0.2396  0.1790  0.0000  0.0000  0.0000  0.0000  0.0000 </r>
        <r>  0.0000  0.0865  0.1070  0.0104  0.0000  0.0000  0.0000  0.0000  0.0000 </r>
        <r>  0.0000  0.0028  0.0711  0.0401  0.0000  0.0000  0.0000  0.0000  0.0000 </r>
        <r>  0.0000  0.0268  0.0113  0.0163  0.0000  0.0000  0.0000  0.0000  0.0000 </r>
       </set>
       <set comment="band 6">
        <r>  0.0000  0.0209  0.0032  0.0441  0.0000  0.0000  0.0000  0.0000  0.0000 </r>
        <r>  0.0000  0.0268  0.1131  0.1210  0.0000  0.0000  0.0000  0.0000  0.0000 </r>
        <r>  0.0000  0.0226  0.0378  0.0120  0.0000  0.0000  0.0000  0.0000  0.0000 </r>
        <r>  0.0000  0.1609  0.2143  0.2214  0.0000  0.0000  0.0000  0.0000  0.0000 </r>
       </set>
       <set comment="band 7">
        <r>  0.0000  0.0214  0.0067  0.0265  0.0000  0.0000  0.0000  0.0000  0.0000 </r>
        <r>  0.0000  0.1363  0.0295  0.1181  0.0000  0.0000  0.0000  0.0000  0.0000 </r>
        <r>  0.0000  0.2241  0.1406  0.1974  0.0000  0.0000  0.0000  0.0000  0.0000 </r>
        <r>  0.0000  0.0619  0.0239  0.0118  0.0000  0.0000  0.0000  0.0000  0.0000 </r>
       </set>
       <set comment="band 8">
        <r>  0.0000  0.1518  0.2022  0.0184  0.0000  0.0000  0.0000  0.0000  0.0000 </r>
        <r>  0.0000  0.0247  0.0160  0.0184  0.0000  0.0000  0.0000  0.0000  0.0000 </r>
        <r>  0.0000  0.1518  0.0160  0.0860  0.0000  0.0000  0.0000  0.0000  0.0000 </r>
        <r>  0.0000  0.0247  0.2022  0.0860  0.0000  0.0000  0.0000  0.0000  0.0000 </r>
       </set>
       <set comment="band 9">
        <r>  0.0000  0.0908  0.0474  0.2234  0.0000  0.0000  0.0000  0.0000  0.0000 </r>
        <r>  0.0000  0.0686  0.0668  0.2234  0.0000  0.0000  0.0000  0.0000  0.0000 </r>
        <r>  0.0000  0.0908  0.0668  0.0023  0.0000  0.0000  0.0000  0.0000  0.0000 </r>
        <r>  0.0000  0.0686  0.0474  0.0023  0.0000  0.0000  0.0000  0.0000  0.0000 </r>
       </set>
       <set comment="band 10">
        <r>  0.0000  0.0070  0.0001  0.0078  0.0000  0.0000  0.0000  0.0000  0.0000 </r>
        <r>  0.0000  0.1563  0.1667  0.0078  0.0000  0.0000  0.0000  0.0000  0.0000 </r>
        <r>  0.0000  0.0070  0.1667  0.1612  0.0000  0.0000  0.0000  0.0000  0.0000 </r>
        <r>  0.0000  0.1563  0.0001  0.1612  0.0000  0.0000  0.0000  0.0000  0.0000 </r>
       </set>
       <set comment="band 11">
        <r>  0.0000  0.0061  0.1317  0.1117  0.0000  0.0000  0.0000  0.0000  0.0000 </r>
        <r>  0.0000  0.0061  0.1317  0.1117  0.0000  0.0000  0.0000  0.0000  0.0000 </r>
        <r>  0.0000  0.0061  0.1317  0.1117  0.0000  0.0000  0.0000  0.0000  0.0000 </r>
        <r>  0.0000  0.0061  0.1317  0.1117  0.0000  0.0000  0.0000  0.0000  0.0000 </r>
       </set>
       <set comment="band 12">
        <r>  0.0000  0.1603  0.0347  0.0547  0.0000  0.0000  0.0000  0.0000  0.0000 </r>
        <r>  0.0000  0.1603  0.0347  0.0547  0.0000  0.0000  0.0000  0.0000  0.0000 </r>
        <r>  0.0000  0.1603  0.0347  0.0547  0.0000  0.0000  0.0000  0.0000  0.0000 </r>
        <r>  0.0000  0.1603  0.0347  0.0547  0.0000  0.0000  0.0000  0.0000  0.0000 </r>
       </set>
       <set comment="band 13">
        <r>  0.0404  0.0000  0.0000  0.0000  0.0539  0.0539  0.0000  0.0539  0.0000 </r>
        <r>  0.0404  0.0000  0.0000  0.0000  0.0539  0.0539  0.0000  0.0539  0.0000 </r>
        <r>  0.0404  0.0000  0.0000  0.0000  0.0539  0.0539  0.0000  0.0539  0.0000 </r>
        <r>  0.0404  0.0000  0.0000  0.0000  0.0539  0.0539  0.0000  0.0539  0.0000 </r>
       </set>
       <set comment="band 14">
        <r>  0.1063  0.0002  0.0001  0.0002  0.0574  0.0074  0.0000  0.0046  0.0000 </r>
        <r>  0.0057  0.0001  0.0000  0.0000  0.0051  0.1460  0.0000  0.0589  0.0000 </r>
        <r>  0.0036  0.0000  0.0000  0.0001  0.0080  0.0589  0.0000  0.1461  0.0000 </r>
        <r>  0.0426  0.0002  0.0000  0.0001  0.1452  0.0052  0.0000  0.0081  0.0000 </r>
       </set>
       <set comment="band 15">
        <r>  0.0017  0.0001  0.0000  0.0000  0.0169  0.0958  0.0000  0.1029  0.0000 </r>
        <r>  0.0696  0.0002  0.0001  0.0002  0.1017  0.0023  0.0000  0.0168  0.0000 </r>
        <r>  0.0747  0.0002  0.0001  0.0002  0.0947  0.0166  0.0000  0.0024  0.0000 </r>
        <r>  0.0122  0.0001  0.0000  0.0001  0.0025  0.1026  0.0000  0.0958  0.0000 </r>
       </set>
       <set comment="band 16">
        <r>  0.0106  0.0000  0.0001  0.0000  0.0884  0.0595  0.0000  0.0552  0.0000 </r>
        <r>  0.0434  0.0000  0.0002  0.0001  0.0560  0.0144  0.0000  0.0870  0.0000 </r>
        <r>  0.0404  0.0001  0.0002  0.0001  0.0601  0.0872  0.0000  0.0142  0.0000 </r>
        <r>  0.0638  0.0001  0.0002  0.0001  0.0151  0.0549  0.0000  0.0588  0.0000 </r>
       </set>
       <set comment="band 17">
        <r>  0.0000  0.0001  0.0000  0.0001  0.0581  0.0386  0.1006  0.0329  0.0017 </r>
        <r>  0.0000  0.0001  0.0000  0.0001  0.0383  0.0106  0.1073  0.0105  0.0583 </r>
        <r>  0.0000  0.0001  0.0000  0.0001  0.0462  0.0202  0.0894  0.0129  0.0583 </r>
        <r>  0.0000  0.0001  0.0000  0.0001  0.0434  0.0255  0.1340  0.0237  0.0017 </r>
       </set>
       <set comment="band 18">
        <r>  0.0000  0.0000  0.0001  0.0001  0.0294  0.0419  0.0879  0.0413  0.0298 </r>
        <r>  0.0000  0.0001  0.0000  0.0001  0.0366  0.0359  0.0091  0.0250  0.1222 </r>
        <r>  0.0000  0.0000  0.0000  0.0000  0.0037  0.0087  0.0837  0.0025  0.1222 </r>
        <r>  0.0000  0.0001  0.0001  0.0000  0.0387  0.0570  0.0666  0.0404  0.0298 </r>
       </set>
       <set comment="band 19">
        <r>  0.0000  0.0000  0.0000  0.0000  0.0028  0.0098  0.0183  0.0160  0.1753 </r>
        <r>  0.0000  0.0000  0.0001  0.0000  0.0154  0.0438  0.0903  0.0547  0.0262 </r>
        <r>  0.0000  0.0000  0.0001  0.0001  0.0403  0.0613  0.0336  0.0749  0.0262 </r>
        <r>  0.0000  0.0000  0.0000  0.0001  0.0081  0.0078  0.0062  0.0261  0.1753 </r>
       </set>
       <set comment="band 20">
        <r>  0.0000  0.0000  0.0000  0.0000  0.0606  0.0093  0.1335  0.0230  0.0028 </r>
        <r>  0.0000  0.0000  0.0000  0.0000  0.0606  0.0093  0.1335  0.0230  0.0028 </r>
        <r>  0.0000  0.0000  0.0000  0.0000  0.0606  0.0093  0.1335  0.0230  0.0028 </r>
        <r>  0.0000  0.0000  0.0000  0.0000  0.0606  0.0093  0.1335  0.0230  0.0028 </r>
       </set>
       <set comment="band 21">
        <r>  0.0000  0.0000  0.0000  0.0000  0.0013  0.0526  0.0028  0.0390  0.1335 </r>
        <r>  0.0000  0.0000  0.0000  0.0000  0.0013  0.0526  0.0028  0.0390  0.1335 </r>
        <r>  0.0000  0.0000  0.0000  0.0000  0.0013  0.0526  0.0028  0.0390  0.1335 </r>
        <r>  0.0000  0.0000  0.0000  0.0000  0.0013  0.0526  0.0028  0.0390  0.1335 </r>
       </set>
       <set comment="band 22">
        <r>  0.0000  0.0000  0.0000  0.0000  0.0544  0.0003  0.1214  0.0561  0.0434 </r>
        <r>  0.0000  0.0000  0.0000  0.0000  0.0363  0.0003  0.0810  0.0343  0.0245 </r>
        <r>  0.0000  0.0000  0.0000  0.0000  0.0363  0.0027  0.0810  0.0561  0.0605 </r>
        <r>  0.0000  0.0000  0.0000  0.0000  0.0544  0.0027  0.1214  0.0343  0.0145 </r>
       </set>
       <set comment="band 23">
        <r>  0.0000  0.0000  0.0000  0.0000  0.0323  0.0266  0.0720  0.0022  0.0187 </r>
        <r>  0.0000  0.0000  0.0000  0.0000  0.0543  0.0266  0.1211  0.0053  0.0070 </r>
        <r>  0.0000  0.0000  0.0000  0.0001  0.0543  0.0635  0.1211  0.0022  0.0574 </r>
        <r>  0.0000  0.0000  0.0000  0.0001  0.0323  0.0635  0.0720  0.0053  0.0783 </r>
       </set>
       <set comment="band 24">
        <r>  0.0000  0.0000  0.0000  0.0001  0.0053  0.0651  0.0119  0.0338  0.1432 </r>
        <r>  0.0000  0.0000  0.0000  0.0001  0.0015  0.0651  0.0033  0.0525  0.1739 </r>
        <r>  0.0000  0.0000  0.0000  0.0000  0.0015  0.0258  0.0033  0.0338  0.0875 </r>
        <r>  0.0000  0.0000  0.0000  0.0000  0.0053  0.0258  0.0119  0.0525  0.1125 </r>
       </set>
       <set comment="band 25">
        <r>  0.0007  0.0141  0.0178  0.0154  0.0352  0.0274  0.0065  0.0339  0.0012 </r>
        <r>  0.0002  0.0176  0.0138  0.0656  0.0166  0.0005  0.0105  0.0141  0.0178 </r>
        <r>  0.0001  0.0654  0.0149  0.0177  0.0160  0.0074  0.0109  0.0063  0.0178 </r>
        <r>  0.0002  0.0150  0.0654  0.0140  0.0097  0.0094  0.0260  0.0155  0.0012 </r>
       </set>
       <set comment="band 26">
        <r>  0.0001  0.0598  0.0118  0.0311  0.0035  0.0165  0.0037  0.0036  0.0269 </r>
        <r>  0.0003  0.0117  0.0601  0.0091  0.0045  0.0283  0.0162  0.0194  0.0054 </r>
        <r>  0.0006  0.0094  0.0317  0.0117  0.0197  0.0388  0.0045  0.0307  0.0054 </r>
        <r>  0.0001  0.0313  0.0093  0.0597  0.0048  0.0131  0.0027  0.0089  0.0269 </r>
       </set>
       <set comment="band 27">
        <r>  0.0001  0.0102  0.0546  0.0377  0.0093  0.0040  0.0242  0.0105  0.0063 </r>
        <r>  0.0004  0.0549  0.0103  0.0095  0.0269  0.0191  0.0077  0.0145  0.0112 </r>
        <r>  0.0001  0.0093  0.0375  0.0548  0.0123  0.0017  0.0189  0.0110  0.0112 </r>
        <r>  0.0005  0.0379  0.0094  0.0105  0.0335  0.0255  0.0057  0.0236  0.0063 </r>
       </set>
       <set comment="band 28">
        <r>  0.0033  0.0387  0.0387  0.0387  0.0012  0.0012  0.0000  0.0012  0.0000 </r>
        <r>  0.0033  0.0387  0.0387  0.0387  0.0012  0.0012  0.0000  0.0012  0.0000 </r>
        <r>  0.0033  0.0387  0.0387  0.0387  0.0012  0.0012  0.0000  0.0012  0.0000 </r>
        <r>  0.0033  0.0387  0.0387  0.0387  0.0012  0.0012  0.0000  0.0012  0.0000 </r>
       </set>
       <set comment="band 29">
        <r>  0.0000  0.0000  0.0000  0.0000  0.0967  0.0228  0.0957  0.0279  0.0015 </r>
        <r>  0.0000  0.0000  0.0000  0.0000  0.0967  0.0228  0.0957  0.0279  0.0015 </r>
        <r>  0.0000  0.0000  0.0000  0.0000  0.0967  0.0228  0.0957  0.0279  0.0015 </r>
        <r>  0.0000  0.0000  0.0000  0.0000  0.0967  0.0228  0.0957  0.0279  0.0015 </r>
       </set>
       <set comment="band 30">
        <r>  0.0000  0.0000  0.0000  0.0000  0.0016  0.0755  0.0015  0.0703  0.0957 </r>
        <r>  0.0000  0.0000  0.0000  0.0000  0.0016  0.0755  0.0015  0.0703  0.0957 </r>
        <r>  0.0000  0.0000  0.0000  0.0000  0.0016  0.0755  0.0015  0.0703  0.0957 </r>
        <r>  0.0000  0.0000  0.0000  0.0000  0.0016  0.0755  0.0015  0.0703  0.0957 </r>
       </set>
       <set comment="band 31">
        <r>  0.0000  0.0000  0.0000  0.0000  0.0080  0.0658  0.0078  0.0948  0.1017 </r>
        <r>  0.0000  0.0000  0.0000  0.0000  0.1029  0.0658  0.1003  0.0214  0.0232 </r>
        <r>  0.0000  0.0000  0.0000  0.0000  0.1029  0.0042  0.1003  0.0948  0.0309 </r>
        <r>  0.0000  0.0000  0.0000  0.0000  0.0080  0.0042  0.0078  0.0214  0.0141 </r>
       </set>
       <set comment="band 32">
        <r>  0.0000  0.0000  0.0000  0.0000  0.1104  0.0182  0.1076  0.0391  0.0013 </r>
        <r>  0.0000  0.0000  0.0000  0.0000  0.0183  0.0182  0.0179  0.0001  0.0059 </r>
        <r>  0.0000  0.0000  0.0000  0.0000  0.0183  0.1109  0.0179  0.0391  0.0915 </r>
        <r>  0.0000  0.0000  0.0000  0.0000  0.1104  0.1109  0.1076  0.0001  0.0363 </r>
       </set>
       <set comment="band 33">
        <r>  0.0000  0.0000  0.0000  0.0000  0.0302  0.0645  0.0294  0.0147  0.0417 </r>
        <r>  0.0000  0.0000  0.0000  0.0000  0.0273  0.0645  0.0266  0.1270  0.1156 </r>
        <r>  0.0000  0.0000  0.0000  0.0000  0.0273  0.0334  0.0266  0.0147  0.0224 </r>
        <r>  0.0000  0.0000  0.0000  0.0000  0.0302  0.0334  0.0294  0.1270  0.0944 </r>
       </set>
       <set comment="band 34">
        <r>  0.0002  0.0063  0.0086  0.0113  0.0751  0.0464  0.0433  0.0466  0.0024 </r>
        <r>  0.0001  0.0080  0.0074  0.0204  0.0560  0.0203  0.0468  0.0255  0.0259 </r>
        <r>  0.0001  0.0204  0.0125  0.0082  0.0414  0.0174  0.0619  0.0059  0.0259 </r>
        <r>  0.0001  0.0116  0.0212  0.0067  0.0386  0.0216  0.0812  0.0151  0.0024 </r>
       </set>
       <set comment="band 35">
        <r>  0.0000  0.0233  0.0074  0.0149  0.0026  0.0012  0.0168  0.0303  0.0836 </r>
        <r>  0.0001  0.0082  0.0218  0.0024  0.0202  0.0371  0.0415  0.0680  0.0216 </r>
        <r>  0.0002  0.0032  0.0142  0.0069  0.0421  0.0507  0.0189  0.0881  0.0216 </r>
        <r>  0.0001  0.0158  0.0025  0.0221  0.0166  0.0069  0.0023  0.0461  0.0836 </r>
       </set>
       <set comment="band 36">
        <r>  0.0001  0.0061  0.0197  0.0095  0.0247  0.0549  0.0486  0.0256  0.0227 </r>
        <r>  0.0001  0.0195  0.0064  0.0129  0.0263  0.0451  0.0203  0.0089  0.0612 </r>
        <r>  0.0001  0.0120  0.0090  0.0205  0.0190  0.0343  0.0279  0.0085  0.0612 </r>
        <r>  0.0002  0.0083  0.0119  0.0068  0.0473  0.0740  0.0252  0.0413  0.0227 </r>
       </set>
       <set comment="band 37">
        <r>  0.0035  0.0001  0.0003  0.0000  0.0937  0.0045  0.0000  0.0448  0.0000 </r>
        <r>  0.0123  0.0003  0.0001  0.0000  0.0448  0.0015  0.0000  0.0937  0.0000 </r>
        <r>  0.1237  0.0001  0.0000  0.0006  0.0045  0.0937  0.0000  0.0015  0.0000 </r>
        <r>  0.2247  0.0003  0.0002  0.0005  0.0015  0.0449  0.0000  0.0045  0.0000 </r>
       </set>
       <set comment="band 38">
        <r>  0.0081  0.0001  0.0000  0.0003  0.0066  0.0971  0.0000  0.0394  0.0000 </r>
        <r>  0.2696  0.0003  0.0005  0.0002  0.0395  0.0017  0.0000  0.0066  0.0000 </r>
        <r>  0.1027  0.0000  0.0005  0.0000  0.0971  0.0066  0.0000  0.0017  0.0000 </r>
        <r>  0.0154  0.0003  0.0000  0.0000  0.0017  0.0394  0.0000  0.0971  0.0000 </r>
       </set>
       <set comment="band 39">
        <r>  0.3757  0.0014  0.0012  0.0012  0.0016  0.0035  0.0000  0.0008  0.0000 </r>
        <r>  0.0104  0.0004  0.0006  0.0000  0.0008  0.1374  0.0000  0.0016  0.0000 </r>
        <r>  0.0027  0.0000  0.0003  0.0003  0.0035  0.0016  0.0000  0.1374  0.0000 </r>
        <r>  0.0462  0.0004  0.0000  0.0005  0.1374  0.0008  0.0000  0.0035  0.0000 </r>
       </set>
       <set comment="band 40">
        <r>  0.0243  0.0001  0.0001  0.0001  0.0090  0.0138  0.0000  0.0185  0.0000 </r>
        <r>  0.0658  0.0002  0.0002  0.0004  0.0184  0.0003  0.0000  0.0089  0.0000 </r>
        <r>  0.0652  0.0004  0.0003  0.0003  0.0137  0.0089  0.0000  0.0004  0.0000 </r>
        <r>  4.5526  0.0002  0.0004  0.0002  0.0003  0.0185  0.0000  0.0138  0.0000 </r>
       </set>
      </set>
     </set>
    </set>
   </array>
  </projected>
 </calculation>
 <structure name="finalpos" >
  <crystal>
   <varray name="basis" >
    <v>       3.80955531       0.00000000       0.00000000 </v>
    <v>       0.00000000       3.80955531       0.00000000 </v>
    <v>       0.00000000       0.00000000       3.80955531 </v>
   </varray>
   <i name="volume">     55.28697760 </i>
   <varray name="rec_basis" >
    <v>       0.26249783       0.00000000       0.00000000 </v>
    <v>       0.00000000       0.26249783       0.00000000 </v>
    <v>       0.00000000       0.00000000       0.26249783 </v>
   </varray>
  </crystal>
  <varray name="positions" >
   <v>       0.50000000       0.50000000       0.00000000 </v>
   <v>       0.50000000       0.00000000       0.50000000 </v>
   <v>       0.00000000       0.50000000       0.50000000 </v>
   <v>       0.00000000       0.00000000       0.00000000 </v>
  </varray>
 </structure>
</modeling>
