       N       E                     dE             d eps       ncg     rms          rms(c)
DAV:   1     0.294301251443E+04    0.29430E+04   -0.89514E+04  6968   0.229E+03
DAV:   2     0.601108458982E+03   -0.23419E+04   -0.22428E+04  5672   0.754E+02
DAV:   3    -0.864300150949E+01   -0.60975E+03   -0.58203E+03  6640   0.268E+02
DAV:   4    -0.940820790527E+02   -0.85439E+02   -0.83742E+02  7832   0.105E+02
DAV:   5    -0.100206438477E+03   -0.61244E+01   -0.60320E+01  8320   0.276E+01    0.302E+01
DAV:   6    -0.997452179662E+02    0.46122E+00   -0.43580E+01  8880   0.220E+01    0.329E+01
DAV:   7    -0.999345066588E+02   -0.18929E+00   -0.18739E+02  7168   0.303E+01    0.204E+01
DAV:   8    -0.101004156068E+03   -0.10696E+01   -0.41715E+01  7464   0.216E+01    0.185E+01
DAV:   9    -0.978535366562E+02    0.31506E+01   -0.22216E+01  7416   0.120E+01    0.117E+01
DAV:  10    -0.945254246302E+02    0.33281E+01   -0.60170E+00  6920   0.766E+00    0.881E+00
DAV:  11    -0.933593439020E+02    0.11661E+01   -0.24319E+00  7744   0.452E+00    0.565E+00
DAV:  12    -0.929805809171E+02    0.37876E+00   -0.40097E-01  8632   0.189E+00    0.361E+00
DAV:  13    -0.929464169117E+02    0.34164E-01   -0.77044E-02  7640   0.155E+00    0.320E+00
DAV:  14    -0.927848818250E+02    0.16154E+00   -0.26904E-01  7400   0.178E+00    0.106E+00
DAV:  15    -0.927823760500E+02    0.25058E-02   -0.94309E-02  8064   0.858E-01    0.677E-01
DAV:  16    -0.927869689622E+02   -0.45929E-02   -0.68400E-02  6672   0.958E-01    0.806E-01
DAV:  17    -0.927787292474E+02    0.82397E-02   -0.25609E-02  7392   0.614E-01    0.260E-01
DAV:  18    -0.927782671907E+02    0.46206E-03   -0.27510E-03  8168   0.217E-01    0.161E-01
DAV:  19    -0.927782218791E+02    0.45312E-04   -0.91362E-04  7136   0.132E-01    0.719E-02
DAV:  20    -0.927783984203E+02   -0.17654E-03   -0.45368E-04  7272   0.784E-02    0.378E-02
DAV:  21    -0.927785816468E+02   -0.18323E-03   -0.79335E-05  6592   0.477E-02    0.175E-02
DAV:  22    -0.927788047414E+02   -0.22309E-03   -0.96163E-05  5176   0.398E-02    0.531E-02
DAV:  23    -0.927788291562E+02   -0.24415E-04   -0.73777E-05  5104   0.365E-02    0.117E-02
DAV:  24    -0.927789352266E+02   -0.10607E-03   -0.13933E-05  4664   0.151E-02    0.513E-03
DAV:  25    -0.927790248999E+02   -0.89673E-04   -0.19599E-05  4728   0.150E-02    0.163E-02
DAV:  26    -0.927790791238E+02   -0.54224E-04   -0.11373E-05  4368   0.153E-02    0.341E-03
DAV:  27    -0.927791268963E+02   -0.47772E-04   -0.28245E-06  3984   0.786E-03    0.238E-03
DAV:  28    -0.927791459868E+02   -0.19091E-04   -0.14719E-06  3920   0.684E-03    0.404E-03
DAV:  29    -0.927791536041E+02   -0.76173E-05   -0.10480E-06  3640   0.508E-03
   1 F= -.95733772E+02 E0= -.95732309E+02  d E =-.957338E+02
       N       E                     dE             d eps       ncg     rms          rms(c)
DAV:   1    -0.925993531820E+02    0.17979E+00   -0.11080E+01  5440   0.566E+00    0.114E+00
DAV:   2    -0.926100778647E+02   -0.10725E-01   -0.33251E-01  7688   0.148E+00    0.888E-01
DAV:   3    -0.926090986946E+02    0.97917E-03   -0.11042E-01  7272   0.166E+00    0.878E-01
DAV:   4    -0.925983290558E+02    0.10770E-01   -0.38790E-02  6960   0.808E-01    0.510E-01
DAV:   5    -0.926021489570E+02   -0.38199E-02   -0.16692E-02  7536   0.544E-01    0.551E-01
DAV:   6    -0.925984066792E+02    0.37423E-02   -0.24909E-02  7744   0.681E-01    0.296E-01
DAV:   7    -0.925972513786E+02    0.11553E-02   -0.51566E-03  7336   0.270E-01    0.872E-02
DAV:   8    -0.925972188657E+02    0.32513E-04   -0.61242E-04  6656   0.122E-01    0.409E-02
DAV:   9    -0.925973110908E+02   -0.92225E-04   -0.67776E-05  6152   0.320E-02    0.254E-02
DAV:  10    -0.925975074807E+02   -0.19639E-03   -0.48954E-05  4904   0.238E-02    0.807E-03
DAV:  11    -0.925975947527E+02   -0.87272E-04   -0.12526E-05  4944   0.142E-02    0.862E-03
DAV:  12    -0.925976710049E+02   -0.76252E-04   -0.67606E-06  4480   0.899E-03    0.376E-03
DAV:  13    -0.925978138517E+02   -0.14285E-03   -0.30509E-05  4656   0.111E-02    0.556E-03
DAV:  14    -0.925978327911E+02   -0.18939E-04   -0.28119E-06  4608   0.833E-03    0.445E-03
DAV:  15    -0.925978646780E+02   -0.31887E-04   -0.38517E-06  4312   0.538E-03    0.165E-03
DAV:  16    -0.925978832445E+02   -0.18567E-04   -0.31081E-06  4392   0.477E-03    0.260E-03
DAV:  17    -0.925978843298E+02   -0.10852E-05   -0.46228E-07  3296   0.360E-03
   2 F= -.95553646E+02 E0= -.95553119E+02  d E =0.180126E+00
       N       E                     dE             d eps       ncg     rms          rms(c)
DAV:   1    -0.927765223037E+02   -0.17864E+00   -0.91720E+00  5440   0.539E+00    0.122E+00
DAV:   2    -0.927910089742E+02   -0.14487E-01   -0.29813E-01  7712   0.136E+00    0.755E-01
DAV:   3    -0.927968596099E+02   -0.58506E-02   -0.12189E-01  7280   0.166E+00    0.774E-01
DAV:   4    -0.927814647153E+02    0.15395E-01   -0.63523E-02  8024   0.136E+00    0.246E-01
DAV:   5    -0.927810122979E+02    0.45242E-03   -0.56994E-03  7224   0.272E-01    0.149E-01
DAV:   6    -0.927808479993E+02    0.16430E-03   -0.18271E-03  7304   0.190E-01    0.122E-01
DAV:   7    -0.927809531968E+02   -0.10520E-03   -0.18152E-03  6840   0.162E-01    0.126E-01
DAV:   8    -0.927806766187E+02    0.27658E-03   -0.85445E-04  6360   0.102E-01    0.317E-02
DAV:   9    -0.927806947632E+02   -0.18145E-04   -0.85683E-05  6192   0.340E-02    0.241E-02
DAV:  10    -0.927807419521E+02   -0.47189E-04   -0.15316E-05  4464   0.241E-02    0.103E-02
DAV:  11    -0.927808013708E+02   -0.59419E-04   -0.11901E-05  4688   0.136E-02    0.847E-03
DAV:  12    -0.927808238403E+02   -0.22470E-04   -0.20087E-06  3728   0.993E-03    0.502E-03
DAV:  13    -0.927809049134E+02   -0.81073E-04   -0.94857E-06  4496   0.112E-02    0.417E-03
DAV:  14    -0.927809516882E+02   -0.46775E-04   -0.49551E-06  4480   0.895E-03    0.379E-03
DAV:  15    -0.927809709016E+02   -0.19213E-04   -0.14517E-06  4096   0.536E-03    0.166E-03
DAV:  16    -0.927809924873E+02   -0.21586E-04   -0.25721E-06  4184   0.522E-03    0.878E-04
DAV:  17    -0.927810025552E+02   -0.10068E-04   -0.99154E-07  3936   0.416E-03    0.118E-03
DAV:  18    -0.927810079348E+02   -0.53796E-05   -0.76243E-07  3496   0.294E-03
   3 F= -.95735727E+02 E0= -.95734321E+02  d E =-.195498E-02
       N       E                     dE             d eps       ncg     rms          rms(c)
DAV:   1    -0.927825200945E+02   -0.15175E-02   -0.10678E+00  6000   0.277E+00    0.211E-01
DAV:   2    -0.927853528976E+02   -0.28328E-02   -0.29429E-02  7296   0.650E-01    0.134E-01
DAV:   3    -0.927860496354E+02   -0.69674E-03   -0.42765E-03  8248   0.223E-01    0.235E-01
DAV:   4    -0.927853459074E+02    0.70373E-03   -0.20685E-03  7696   0.163E-01    0.630E-02
DAV:   5    -0.927853769250E+02   -0.31018E-04   -0.34083E-04  6192   0.819E-02    0.341E-02
DAV:   6    -0.927853547605E+02    0.22165E-04   -0.31371E-04  5888   0.926E-02    0.221E-02
DAV:   7    -0.927853443722E+02    0.10388E-04   -0.10401E-04  4952   0.509E-02    0.117E-02
DAV:   8    -0.927853417180E+02    0.26542E-05   -0.14540E-05  3928   0.190E-02
   4 F= -.95740662E+02 E0= -.95739308E+02  d E =-.493503E-02
       N       E                     dE             d eps       ncg     rms          rms(c)
DAV:   1    -0.927814764694E+02    0.38679E-02   -0.29678E+00  5992   0.463E+00    0.347E-01
DAV:   2    -0.927894806543E+02   -0.80042E-02   -0.83473E-02  7360   0.108E+00    0.216E-01
DAV:   3    -0.927913387242E+02   -0.18581E-02   -0.11404E-02  8184   0.377E-01    0.379E-01
DAV:   4    -0.927895059116E+02    0.18328E-02   -0.56431E-03  7928   0.268E-01    0.105E-01
DAV:   5    -0.927895689262E+02   -0.63015E-04   -0.79646E-04  7128   0.129E-01    0.583E-02
DAV:   6    -0.927895119455E+02    0.56981E-04   -0.60931E-04  6336   0.132E-01    0.312E-02
DAV:   7    -0.927895017965E+02    0.10149E-04   -0.26326E-04  5888   0.794E-02    0.218E-02
DAV:   8    -0.927894895057E+02    0.12291E-04   -0.51729E-05  5112   0.330E-02    0.736E-03
DAV:   9    -0.927894893143E+02    0.19137E-06   -0.60851E-06  3256   0.176E-02
   5 F= -.95745855E+02 E0= -.95744594E+02  d E =-.101277E-01
       N       E                     dE             d eps       ncg     rms          rms(c)
DAV:   1    -0.927515796402E+02    0.37910E-01   -0.11902E+01  5984   0.933E+00    0.700E-01
DAV:   2    -0.927854906447E+02   -0.33911E-01   -0.35395E-01  7392   0.219E+00    0.426E-01
DAV:   3    -0.927930119130E+02   -0.75213E-02   -0.47303E-02  7984   0.808E-01    0.758E-01
DAV:   4    -0.927856276144E+02    0.73843E-02   -0.23982E-02  7744   0.561E-01    0.210E-01
DAV:   5    -0.927858095755E+02   -0.18196E-03   -0.25451E-03  7496   0.236E-01    0.127E-01
DAV:   6    -0.927855671418E+02    0.24243E-03   -0.11504E-03  7040   0.197E-01    0.436E-02
DAV:   7    -0.927855559665E+02    0.11175E-04   -0.19577E-04  7200   0.927E-02    0.205E-02
DAV:   8    -0.927855556702E+02    0.29631E-06   -0.80061E-05  5288   0.445E-02
   6 F= -.95744170E+02 E0= -.95743097E+02  d E =-.844356E-02
       N       E                     dE             d eps       ncg     rms          rms(c)
DAV:   1    -0.927770982816E+02    0.84577E-02   -0.46709E+00  5976   0.580E+00    0.426E-01
DAV:   2    -0.927901918359E+02   -0.13094E-01   -0.13512E-01  7288   0.146E+00    0.298E-01
DAV:   3    -0.927930284608E+02   -0.28366E-02   -0.21348E-02  7744   0.585E-01    0.471E-01
DAV:   4    -0.927900185309E+02    0.30099E-02   -0.83555E-03  7760   0.372E-01    0.129E-01
DAV:   5    -0.927901542461E+02   -0.13572E-03   -0.13537E-03  7424   0.184E-01    0.677E-02
DAV:   6    -0.927900775255E+02    0.76721E-04   -0.14060E-03  7304   0.193E-01    0.482E-02
DAV:   7    -0.927900291058E+02    0.48420E-04   -0.44507E-04  6768   0.981E-02    0.258E-02
DAV:   8    -0.927900186311E+02    0.10475E-04   -0.72074E-05  6568   0.405E-02    0.107E-02
DAV:   9    -0.927900179404E+02    0.69067E-06   -0.68107E-06  3464   0.157E-02
   7 F= -.95747197E+02 E0= -.95746014E+02  d E =-.114698E-01
       N       E                     dE             d eps       ncg     rms          rms(c)
DAV:   1    -0.927898142628E+02    0.20437E-03   -0.34644E-02  6000   0.499E-01    0.379E-02
DAV:   2    -0.927899081301E+02   -0.93867E-04   -0.96571E-04  7192   0.121E-01    0.251E-02
DAV:   3    -0.927899297166E+02   -0.21587E-04   -0.14672E-04  6344   0.414E-02    0.420E-02
DAV:   4    -0.927899064324E+02    0.23284E-04   -0.67518E-05  4920   0.336E-02    0.110E-02
DAV:   5    -0.927899073870E+02   -0.95462E-06   -0.91891E-06  3624   0.163E-02
   8 F= -.95747207E+02 E0= -.95746036E+02  d E =-.114800E-01
       N       E                     dE             d eps       ncg     rms          rms(c)
DAV:   1    -0.927848684106E+02    0.50380E-02   -0.57024E-01  5928   0.229E+00    0.231E-01
DAV:   2    -0.927871526568E+02   -0.22842E-02   -0.27470E-02  6432   0.516E-01    0.150E-01
DAV:   3    -0.927873900049E+02   -0.23735E-03   -0.33619E-03  7704   0.268E-01    0.152E-01
DAV:   4    -0.927871117261E+02    0.27828E-03   -0.18595E-03  6840   0.175E-01    0.919E-02
DAV:   5    -0.927872782830E+02   -0.16656E-03   -0.13015E-03  6360   0.133E-01    0.103E-01
DAV:   6    -0.927870117863E+02    0.26650E-03   -0.93356E-04  6160   0.122E-01    0.154E-02
DAV:   7    -0.927870154399E+02   -0.36537E-05   -0.57430E-05  6072   0.300E-02
   9 F= -.95744774E+02 E0= -.95743473E+02  d E =0.243291E-02
       N       E                     dE             d eps       ncg     rms          rms(c)
DAV:   1    -0.927888011555E+02   -0.17894E-02   -0.34219E-01  5640   0.169E+00    0.170E-01
DAV:   2    -0.927900849953E+02   -0.12838E-02   -0.15813E-02  6616   0.396E-01    0.119E-01
DAV:   3    -0.927902603049E+02   -0.17531E-03   -0.16917E-03  7848   0.161E-01    0.143E-01
DAV:   4    -0.927900954038E+02    0.16490E-03   -0.96935E-04  6760   0.849E-02    0.811E-02
DAV:   5    -0.927901768548E+02   -0.81451E-04   -0.10571E-03  6216   0.134E-01    0.632E-02
DAV:   6    -0.927900322681E+02    0.14459E-03   -0.65407E-04  5936   0.113E-01    0.154E-02
DAV:   7    -0.927900327248E+02   -0.45672E-06   -0.31393E-05  5304   0.222E-02
  10 F= -.95747435E+02 E0= -.95746234E+02  d E =-.228090E-03
       N       E                     dE             d eps       ncg     rms          rms(c)
DAV:   1    -0.927901493649E+02   -0.11710E-03   -0.39676E-02  5896   0.631E-01    0.395E-02
DAV:   2    -0.927903485607E+02   -0.19920E-03   -0.21007E-03  6624   0.148E-01    0.230E-02
DAV:   3    -0.927903659641E+02   -0.17403E-04   -0.14958E-04  6312   0.495E-02    0.296E-02
DAV:   4    -0.927903560223E+02    0.99417E-05   -0.64550E-05  4856   0.338E-02
  11 F= -.95747907E+02 E0= -.95746676E+02  d E =-.472090E-03
       N       E                     dE             d eps       ncg     rms          rms(c)
DAV:   1    -0.927891516339E+02    0.12143E-02   -0.35827E-01  6104   0.189E+00    0.116E-01
DAV:   2    -0.927909447236E+02   -0.17931E-02   -0.19022E-02  6400   0.445E-01    0.690E-02
DAV:   3    -0.927910398771E+02   -0.95153E-04   -0.10647E-03  8392   0.130E-01    0.615E-02
DAV:   4    -0.927910456057E+02   -0.57286E-05   -0.31189E-04  5720   0.657E-02    0.603E-02
DAV:   5    -0.927910494867E+02   -0.38811E-05   -0.25256E-04  5368   0.572E-02    0.387E-02
DAV:   6    -0.927910171578E+02    0.32329E-04   -0.22999E-04  5080   0.661E-02    0.123E-02
DAV:   7    -0.927910137506E+02    0.34072E-05   -0.20878E-05  3808   0.240E-02
  12 F= -.95749015E+02 E0= -.95747748E+02  d E =-.158046E-02
       N       E                     dE             d eps       ncg     rms          rms(c)
DAV:   1    -0.927833305961E+02    0.76866E-02   -0.14313E+00  6088   0.379E+00    0.229E-01
DAV:   2    -0.927906493724E+02   -0.73188E-02   -0.77655E-02  6528   0.875E-01    0.129E-01
DAV:   3    -0.927909228662E+02   -0.27349E-03   -0.35578E-03  8656   0.208E-01    0.845E-02
DAV:   4    -0.927910403781E+02   -0.11751E-03   -0.54899E-04  6848   0.931E-02    0.994E-02
DAV:   5    -0.927909684558E+02    0.71922E-04   -0.60368E-04  6000   0.681E-02    0.596E-02
DAV:   6    -0.927909562274E+02    0.12228E-04   -0.39446E-04  5520   0.858E-02    0.284E-02
DAV:   7    -0.927909269051E+02    0.29322E-04   -0.17750E-04  4952   0.620E-02    0.110E-02
DAV:   8    -0.927909248323E+02    0.20728E-05   -0.12818E-05  4016   0.189E-02
  13 F= -.95749847E+02 E0= -.95748490E+02  d E =-.241194E-02
       N       E                     dE             d eps       ncg     rms          rms(c)
DAV:   1    -0.927898233588E+02    0.11035E-02   -0.23888E-01  5984   0.148E+00    0.958E-02
DAV:   2    -0.927908021844E+02   -0.97883E-03   -0.10598E-02  6504   0.323E-01    0.573E-02
DAV:   3    -0.927908796120E+02   -0.77428E-04   -0.70128E-04  8080   0.942E-02    0.736E-02
DAV:   4    -0.927908332067E+02    0.46405E-04   -0.26628E-04  5624   0.446E-02    0.394E-02
DAV:   5    -0.927908457275E+02   -0.12521E-04   -0.21667E-04  5240   0.651E-02    0.264E-02
DAV:   6    -0.927908185698E+02    0.27158E-04   -0.14364E-04  4632   0.535E-02    0.763E-03
DAV:   7    -0.927908180050E+02    0.56480E-06   -0.91540E-06  3680   0.149E-02
  14 F= -.95749987E+02 E0= -.95748583E+02  d E =-.140460E-03
       N       E                     dE             d eps       ncg     rms          rms(c)
DAV:   1    -0.927908394377E+02   -0.20868E-04   -0.28517E-02  5944   0.502E-01    0.321E-02
DAV:   2    -0.927909560901E+02   -0.11665E-03   -0.12607E-03  6192   0.115E-01    0.217E-02
DAV:   3    -0.927909684373E+02   -0.12347E-04   -0.99778E-05  6280   0.345E-02    0.317E-02
DAV:   4    -0.927909579881E+02    0.10449E-04   -0.39130E-05  4776   0.207E-02    0.121E-02
DAV:   5    -0.927909603171E+02   -0.23290E-05   -0.25776E-05  3560   0.274E-02
  15 F= -.95750044E+02 E0= -.95748648E+02  d E =-.196892E-03
       N       E                     dE             d eps       ncg     rms          rms(c)
DAV:   1    -0.927908011351E+02    0.15685E-03   -0.14043E-01  5840   0.104E+00    0.482E-02
DAV:   2    -0.927912973182E+02   -0.49618E-03   -0.52301E-03  6584   0.224E-01    0.285E-02
DAV:   3    -0.927913385233E+02   -0.41205E-04   -0.36561E-04  7232   0.751E-02    0.446E-02
DAV:   4    -0.927913116111E+02    0.26912E-04   -0.94204E-05  5232   0.364E-02    0.154E-02
DAV:   5    -0.927913114604E+02    0.15075E-06   -0.76234E-06  3584   0.128E-02
  16 F= -.95750489E+02 E0= -.95749103E+02  d E =-.445268E-03
       N       E                     dE             d eps       ncg     rms          rms(c)
DAV:   1    -0.927873691285E+02    0.39425E-02   -0.12654E+00  5904   0.311E+00    0.144E-01
DAV:   2    -0.927919404472E+02   -0.45713E-02   -0.48178E-02  6360   0.667E-01    0.828E-02
DAV:   3    -0.927922986881E+02   -0.35824E-03   -0.32843E-03  8264   0.247E-01    0.125E-01
DAV:   4    -0.927920832109E+02    0.21548E-03   -0.86025E-04  6984   0.108E-01    0.490E-02
DAV:   5    -0.927920860507E+02   -0.28399E-05   -0.90701E-05  5648   0.342E-02
  17 F= -.95751555E+02 E0= -.95750174E+02  d E =-.151078E-02
       N       E                     dE             d eps       ncg     rms          rms(c)
DAV:   1    -0.927726801421E+02    0.19403E-01   -0.50660E+00  5896   0.626E+00    0.290E-01
DAV:   2    -0.927917483565E+02   -0.19068E-01   -0.20095E-01  6576   0.136E+00    0.161E-01
DAV:   3    -0.927930419264E+02   -0.12936E-02   -0.13131E-02  8192   0.530E-01    0.217E-01
DAV:   4    -0.927923800466E+02    0.66188E-03   -0.34113E-03  7736   0.226E-01    0.109E-01
DAV:   5    -0.927924167191E+02   -0.36672E-04   -0.55429E-04  6736   0.899E-02    0.842E-02
DAV:   6    -0.927923632667E+02    0.53452E-04   -0.69417E-04  6400   0.132E-01    0.412E-02
DAV:   7    -0.927923477212E+02    0.15545E-04   -0.15129E-04  5952   0.587E-02    0.851E-03
DAV:   8    -0.927923492936E+02   -0.15724E-05   -0.22872E-05  4752   0.217E-02
  18 F= -.95752438E+02 E0= -.95751084E+02  d E =-.239420E-02
       N       E                     dE             d eps       ncg     rms          rms(c)
DAV:   1    -0.927924029138E+02   -0.55193E-04   -0.29272E-02  6096   0.468E-01    0.227E-02
DAV:   2    -0.927925023029E+02   -0.99389E-04   -0.10455E-03  6424   0.101E-01    0.167E-02
DAV:   3    -0.927925105178E+02   -0.82149E-05   -0.74552E-05  6184   0.298E-02
  19 F= -.95752631E+02 E0= -.95751296E+02  d E =-.193410E-03
       N       E                     dE             d eps       ncg     rms          rms(c)
DAV:   1    -0.927919357966E+02    0.56651E-03   -0.26336E-01  6064   0.139E+00    0.678E-02
DAV:   2    -0.927927981105E+02   -0.86231E-03   -0.91747E-03  6576   0.296E-01    0.442E-02
DAV:   3    -0.927928493918E+02   -0.51281E-04   -0.56055E-04  7768   0.934E-02    0.534E-02
DAV:   4    -0.927928244744E+02    0.24917E-04   -0.11544E-04  5584   0.337E-02    0.283E-02
DAV:   5    -0.927928321444E+02   -0.76700E-05   -0.90236E-05  4456   0.430E-02
  20 F= -.95753051E+02 E0= -.95751722E+02  d E =-.613296E-03
       N       E                     dE             d eps       ncg     rms          rms(c)
DAV:   1    -0.927891268339E+02    0.36976E-02   -0.10502E+00  6048   0.281E+00    0.140E-01
DAV:   2    -0.927927385565E+02   -0.36117E-02   -0.38193E-02  6464   0.596E-01    0.981E-02
DAV:   3    -0.927930052751E+02   -0.26672E-03   -0.26947E-03  8144   0.192E-01    0.134E-01
DAV:   4    -0.927928148589E+02    0.19042E-03   -0.70275E-04  6544   0.758E-02    0.506E-02
DAV:   5    -0.927928346491E+02   -0.19790E-04   -0.35008E-04  5848   0.899E-02    0.409E-02
DAV:   6    -0.927927986312E+02    0.36018E-04   -0.20481E-04  5872   0.600E-02    0.149E-02
DAV:   7    -0.927927988808E+02   -0.24960E-06   -0.29303E-05  5120   0.203E-02
  21 F= -.95753222E+02 E0= -.95751877E+02  d E =-.784135E-03
       N       E                     dE             d eps       ncg     rms          rms(c)
DAV:   1    -0.927925706487E+02    0.22798E-03   -0.97232E-02  5896   0.843E-01    0.410E-02
DAV:   2    -0.927928969759E+02   -0.32633E-03   -0.34062E-03  6552   0.180E-01    0.342E-02
DAV:   3    -0.927929225891E+02   -0.25613E-04   -0.28526E-04  7056   0.568E-02    0.453E-02
DAV:   4    -0.927928984156E+02    0.24173E-04   -0.73578E-05  5040   0.315E-02    0.150E-02
DAV:   5    -0.927929002401E+02   -0.18246E-05   -0.22999E-05  3880   0.256E-02
  22 F= -.95753260E+02 E0= -.95751908E+02  d E =-.822299E-03
       N       E                     dE             d eps       ncg     rms          rms(c)
DAV:   1    -0.927929857012E+02   -0.87286E-04   -0.22496E-02  6024   0.391E-01    0.185E-02
DAV:   2    -0.927930559355E+02   -0.70234E-04   -0.74127E-04  6272   0.870E-02    0.122E-02
DAV:   3    -0.927930601017E+02   -0.41662E-05   -0.69805E-05  5728   0.416E-02
  23 F= -.95753417E+02 E0= -.95752096E+02  d E =-.156843E-03
       N       E                     dE             d eps       ncg     rms          rms(c)
DAV:   1    -0.927928756288E+02    0.18031E-03   -0.20271E-01  5896   0.117E+00    0.538E-02
DAV:   2    -0.927934803537E+02   -0.60472E-03   -0.64085E-03  6600   0.242E-01    0.357E-02
DAV:   3    -0.927935135577E+02   -0.33204E-04   -0.34729E-04  7408   0.739E-02    0.362E-02
DAV:   4    -0.927935063397E+02    0.72180E-05   -0.84778E-05  5248   0.351E-02
  24 F= -.95753856E+02 E0= -.95752534E+02  d E =-.595252E-03
       N       E                     dE             d eps       ncg     rms          rms(c)
DAV:   1    -0.927917304191E+02    0.17831E-02   -0.80838E-01  5904   0.233E+00    0.111E-01
DAV:   2    -0.927942247750E+02   -0.24944E-02   -0.26087E-02  6512   0.485E-01    0.971E-02
DAV:   3    -0.927944093816E+02   -0.18461E-03   -0.20824E-03  8208   0.172E-01    0.116E-01
DAV:   4    -0.927942522104E+02    0.15717E-03   -0.54411E-04  6288   0.845E-02    0.442E-02
DAV:   5    -0.927942628254E+02   -0.10615E-04   -0.13320E-04  5520   0.566E-02    0.275E-02
DAV:   6    -0.927942550213E+02    0.78041E-05   -0.15824E-04  5112   0.595E-02    0.177E-02
DAV:   7    -0.927942500561E+02    0.49652E-05   -0.30309E-05  3968   0.288E-02
  25 F= -.95754589E+02 E0= -.95753342E+02  d E =-.132839E-02
       N       E                     dE             d eps       ncg     rms          rms(c)
DAV:   1    -0.927844821436E+02    0.97729E-02   -0.32345E+00  5920   0.468E+00    0.226E-01
DAV:   2    -0.927949197796E+02   -0.10438E-01   -0.10980E-01  6592   0.979E-01    0.165E-01
DAV:   3    -0.927957546468E+02   -0.83487E-03   -0.77647E-03  8392   0.347E-01    0.222E-01
DAV:   4    -0.927951634022E+02    0.59124E-03   -0.21391E-03  8000   0.164E-01    0.827E-02
DAV:   5    -0.927951626947E+02    0.70758E-06   -0.31610E-04  6200   0.827E-02    0.473E-02
DAV:   6    -0.927951830706E+02   -0.20376E-04   -0.47484E-04  6480   0.102E-01    0.381E-02
DAV:   7    -0.927951466505E+02    0.36420E-04   -0.16720E-04  5904   0.630E-02    0.112E-02
DAV:   8    -0.927951477535E+02   -0.11031E-05   -0.20513E-05  4856   0.186E-02
  26 F= -.95755487E+02 E0= -.95754369E+02  d E =-.222619E-02
       N       E                     dE             d eps       ncg     rms          rms(c)
DAV:   1    -0.927489144410E+02    0.46232E-01   -0.12993E+01  5904   0.946E+00    0.464E-01
DAV:   2    -0.927934005764E+02   -0.44486E-01   -0.46815E-01  6624   0.202E+00    0.316E-01
DAV:   3    -0.927967633453E+02   -0.33628E-02   -0.30438E-02  8248   0.707E-01    0.434E-01
DAV:   4    -0.927946132293E+02    0.21501E-02   -0.86016E-03  8040   0.339E-01    0.171E-01
DAV:   5    -0.927945801016E+02    0.33128E-04   -0.12365E-03  7304   0.168E-01    0.101E-01
DAV:   6    -0.927946829465E+02   -0.10284E-03   -0.19572E-03  6832   0.205E-01    0.802E-02
DAV:   7    -0.927945147950E+02    0.16815E-03   -0.73612E-04  6648   0.143E-01    0.268E-02
DAV:   8    -0.927945214967E+02   -0.67018E-05   -0.10378E-04  6616   0.386E-02    0.170E-02
DAV:   9    -0.927945182159E+02    0.32808E-05   -0.11394E-05  4000   0.201E-02
  27 F= -.95754944E+02 E0= -.95754101E+02  d E =-.168393E-02
       N       E                     dE             d eps       ncg     rms          rms(c)
DAV:   1    -0.927751369353E+02    0.19385E-01   -0.59684E+00  5896   0.636E+00    0.299E-01
DAV:   2    -0.927950944955E+02   -0.19958E-01   -0.20799E-01  6488   0.135E+00    0.255E-01
DAV:   3    -0.927965629007E+02   -0.14684E-02   -0.16735E-02  8040   0.514E-01    0.314E-01
DAV:   4    -0.927953120466E+02    0.12509E-02   -0.40499E-03  7944   0.250E-01    0.109E-01
DAV:   5    -0.927953417204E+02   -0.29674E-04   -0.65696E-04  7336   0.116E-01    0.646E-02
DAV:   6    -0.927953381919E+02    0.35285E-05   -0.90510E-04  6704   0.144E-01    0.476E-02
DAV:   7    -0.927952897758E+02    0.48416E-04   -0.25783E-04  6016   0.770E-02    0.120E-02
DAV:   8    -0.927952918071E+02   -0.20314E-05   -0.34991E-05  5344   0.242E-02
  28 F= -.95755646E+02 E0= -.95754616E+02  d E =-.238547E-02
       N       E                     dE             d eps       ncg     rms          rms(c)
DAV:   1    -0.927949724394E+02    0.31734E-03   -0.25460E-01  6008   0.132E+00    0.686E-02
DAV:   2    -0.927957483687E+02   -0.77593E-03   -0.82091E-03  6608   0.275E-01    0.568E-02
DAV:   3    -0.927958123209E+02   -0.63952E-04   -0.69417E-04  7632   0.928E-02    0.730E-02
DAV:   4    -0.927957487981E+02    0.63523E-04   -0.19375E-04  5784   0.492E-02    0.250E-02
DAV:   5    -0.927957554358E+02   -0.66378E-05   -0.75681E-05  4640   0.444E-02
  29 F= -.95756055E+02 E0= -.95755066E+02  d E =-.409224E-03
       N       E                     dE             d eps       ncg     rms          rms(c)
DAV:   1    -0.927952182918E+02    0.53051E-03   -0.23283E-01  6000   0.126E+00    0.670E-02
DAV:   2    -0.927959410416E+02   -0.72275E-03   -0.76660E-03  6728   0.269E-01    0.621E-02
DAV:   3    -0.927959828968E+02   -0.41855E-04   -0.65213E-04  7592   0.929E-02    0.668E-02
DAV:   4    -0.927959376664E+02    0.45230E-04   -0.16824E-04  5736   0.418E-02    0.282E-02
DAV:   5    -0.927959442074E+02   -0.65410E-05   -0.10080E-04  4600   0.519E-02    0.230E-02
DAV:   6    -0.927959324914E+02    0.11716E-04   -0.55557E-05  4288   0.356E-02    0.815E-03
DAV:   7    -0.927959328581E+02   -0.36665E-06   -0.93156E-06  3552   0.123E-02
  30 F= -.95756182E+02 E0= -.95755208E+02  d E =-.536579E-03
       N       E                     dE             d eps       ncg     rms          rms(c)
DAV:   1    -0.927960394381E+02   -0.10695E-03   -0.67818E-02  5800   0.731E-01    0.362E-02
DAV:   2    -0.927962906861E+02   -0.25125E-03   -0.27032E-03  6760   0.169E-01    0.249E-02
DAV:   3    -0.927963123351E+02   -0.21649E-04   -0.20446E-04  6960   0.615E-02    0.308E-02
DAV:   4    -0.927963005610E+02    0.11774E-04   -0.53559E-05  4960   0.290E-02    0.141E-02
DAV:   5    -0.927963003666E+02    0.19442E-06   -0.60717E-06  3336   0.111E-02
  31 F= -.95756470E+02 E0= -.95755525E+02  d E =-.287798E-03
       N       E                     dE             d eps       ncg     rms          rms(c)
DAV:   1    -0.927949145503E+02    0.13860E-02   -0.60950E-01  5808   0.219E+00    0.105E-01
DAV:   2    -0.927971889489E+02   -0.22744E-02   -0.24295E-02  6480   0.502E-01    0.767E-02
DAV:   3    -0.927973724101E+02   -0.18346E-03   -0.21081E-03  8272   0.214E-01    0.930E-02
DAV:   4    -0.927972548983E+02    0.11751E-03   -0.54725E-04  6480   0.927E-02    0.438E-02
DAV:   5    -0.927972645506E+02   -0.96523E-05   -0.10064E-04  5640   0.450E-02    0.350E-02
DAV:   6    -0.927972501218E+02    0.14429E-04   -0.11374E-04  5536   0.542E-02    0.151E-02
DAV:   7    -0.927972505201E+02   -0.39829E-06   -0.18099E-05  4056   0.217E-02
  32 F= -.95757184E+02 E0= -.95756323E+02  d E =-.100210E-02
       N       E                     dE             d eps       ncg     rms          rms(c)
DAV:   1    -0.927887982226E+02    0.84519E-02   -0.24391E+00  5808   0.440E+00    0.215E-01
DAV:   2    -0.927981641454E+02   -0.93659E-02   -0.99903E-02  6456   0.995E-01    0.150E-01
DAV:   3    -0.927989282927E+02   -0.76415E-03   -0.74588E-03  8392   0.370E-01    0.193E-01
DAV:   4    -0.927984663756E+02    0.46192E-03   -0.19369E-03  7432   0.169E-01    0.829E-02
DAV:   5    -0.927984481895E+02    0.18186E-04   -0.18607E-04  6600   0.547E-02    0.447E-02
DAV:   6    -0.927984805226E+02   -0.32333E-04   -0.30261E-04  6088   0.874E-02    0.351E-02
DAV:   7    -0.927984465654E+02    0.33957E-04   -0.16421E-04  5888   0.613E-02    0.102E-02
DAV:   8    -0.927984470539E+02   -0.48849E-06   -0.14195E-05  4296   0.152E-02
  33 F= -.95757924E+02 E0= -.95757229E+02  d E =-.174197E-02
       N       E                     dE             d eps       ncg     rms          rms(c)
DAV:   1    -0.927970142354E+02    0.14323E-02   -0.50061E-01  5952   0.212E+00    0.114E-01
DAV:   2    -0.927990848159E+02   -0.20706E-02   -0.22584E-02  6600   0.478E-01    0.789E-02
DAV:   3    -0.927992523687E+02   -0.16755E-03   -0.16022E-03  8760   0.144E-01    0.999E-02
DAV:   4    -0.927991476527E+02    0.10472E-03   -0.44184E-04  6016   0.757E-02    0.470E-02
DAV:   5    -0.927991432352E+02    0.44175E-05   -0.11474E-04  5856   0.473E-02    0.253E-02
DAV:   6    -0.927991426870E+02    0.54825E-06   -0.14857E-04  5104   0.610E-02    0.205E-02
DAV:   7    -0.927991328580E+02    0.98290E-05   -0.45073E-05  4688   0.345E-02
  34 F= -.95758304E+02 E0= -.95757653E+02  d E =-.379502E-03
       N       E                     dE             d eps       ncg     rms          rms(c)
DAV:   1    -0.927990658630E+02    0.76824E-04   -0.89476E-03  5896   0.282E-01    0.146E-02
DAV:   2    -0.927991055807E+02   -0.39718E-04   -0.41980E-04  6152   0.709E-02    0.131E-02
DAV:   3    -0.927991081089E+02   -0.25282E-05   -0.37357E-05  5232   0.252E-02
  35 F= -.95758320E+02 E0= -.95757655E+02  d E =-.395565E-03
       N       E                     dE             d eps       ncg     rms          rms(c)
DAV:   1    -0.927985396839E+02    0.56590E-03   -0.24950E-01  6024   0.155E+00    0.770E-02
DAV:   2    -0.927996859586E+02   -0.11463E-02   -0.12378E-02  6624   0.363E-01    0.441E-02
DAV:   3    -0.927997725108E+02   -0.86552E-04   -0.85623E-04  8416   0.124E-01    0.543E-02
DAV:   4    -0.927997358304E+02    0.36680E-04   -0.20781E-04  5824   0.624E-02    0.273E-02
DAV:   5    -0.927997341919E+02    0.16385E-05   -0.25062E-05  4504   0.236E-02
  36 F= -.95758707E+02 E0= -.95758100E+02  d E =-.386790E-03
       N       E                     dE             d eps       ncg     rms          rms(c)
DAV:   1    -0.927953601100E+02    0.43757E-02   -0.11108E+00  6040   0.326E+00    0.155E-01
DAV:   2    -0.928005126084E+02   -0.51525E-02   -0.55400E-02  6592   0.778E-01    0.972E-02
DAV:   3    -0.928008406602E+02   -0.32805E-03   -0.39043E-03  8336   0.291E-01    0.982E-02
DAV:   4    -0.928007315624E+02    0.10910E-03   -0.10053E-03  7224   0.141E-01    0.680E-02
DAV:   5    -0.928007404859E+02   -0.89235E-05   -0.22446E-04  6472   0.585E-02    0.562E-02
DAV:   6    -0.928007058854E+02    0.34600E-04   -0.19013E-04  5904   0.677E-02    0.236E-02
DAV:   7    -0.928007070924E+02   -0.12070E-05   -0.34987E-05  4968   0.286E-02
  37 F= -.95759180E+02 E0= -.95758673E+02  d E =-.860476E-03
       N       E                     dE             d eps       ncg     rms          rms(c)
DAV:   1    -0.927795253005E+02    0.21181E-01   -0.44472E+00  6056   0.654E+00    0.322E-01
DAV:   2    -0.928004743132E+02   -0.20949E-01   -0.22540E-01  6616   0.154E+00    0.183E-01
DAV:   3    -0.928017267466E+02   -0.12524E-02   -0.13462E-02  8264   0.483E-01    0.188E-01
DAV:   4    -0.928014551867E+02    0.27156E-03   -0.31505E-03  7584   0.239E-01    0.133E-01
DAV:   5    -0.928013646777E+02    0.90509E-04   -0.52948E-04  6928   0.887E-02    0.770E-02
DAV:   6    -0.928013581412E+02    0.65365E-05   -0.55932E-04  6232   0.125E-01    0.507E-02
DAV:   7    -0.928013276868E+02    0.30454E-04   -0.20846E-04  6192   0.690E-02    0.119E-02
DAV:   8    -0.928013303495E+02   -0.26627E-05   -0.40574E-05  5576   0.238E-02
  38 F= -.95758827E+02 E0= -.95758518E+02  d E =-.507528E-03
       N       E                     dE             d eps       ncg     rms          rms(c)
DAV:   1    -0.927902979907E+02    0.11030E-01   -0.22202E+00  6056   0.462E+00    0.220E-01
DAV:   2    -0.928007216417E+02   -0.10424E-01   -0.11150E-01  6448   0.110E+00    0.143E-01
DAV:   3    -0.928015361498E+02   -0.81451E-03   -0.83208E-03  8312   0.405E-01    0.183E-01
DAV:   4    -0.928011035659E+02    0.43258E-03   -0.19821E-03  7504   0.198E-01    0.814E-02
DAV:   5    -0.928010971604E+02    0.64056E-05   -0.23419E-04  6584   0.757E-02    0.527E-02
DAV:   6    -0.928010994797E+02   -0.23194E-05   -0.31494E-04  6368   0.907E-02    0.345E-02
DAV:   7    -0.928010815706E+02    0.17909E-04   -0.10608E-04  5752   0.509E-02    0.997E-03
DAV:   8    -0.928010829212E+02   -0.13506E-05   -0.18606E-05  4480   0.201E-02
  39 F= -.95759267E+02 E0= -.95758821E+02  d E =-.947180E-03
       N       E                     dE             d eps       ncg     rms          rms(c)
DAV:   1    -0.928010973328E+02   -0.15762E-04   -0.52098E-02  6008   0.638E-01    0.693E-02
DAV:   2    -0.928012577942E+02   -0.16046E-03   -0.22850E-03  7256   0.159E-01    0.489E-02
DAV:   3    -0.928012725305E+02   -0.14736E-04   -0.33646E-04  6848   0.852E-02    0.580E-02
DAV:   4    -0.928012373585E+02    0.35172E-04   -0.16115E-04  5848   0.413E-02    0.320E-02
DAV:   5    -0.928012491974E+02   -0.11839E-04   -0.17175E-04  5120   0.568E-02    0.294E-02
DAV:   6    -0.928012247038E+02    0.24494E-04   -0.99295E-05  4424   0.489E-02    0.890E-03
DAV:   7    -0.928012244777E+02    0.22608E-06   -0.90763E-06  4064   0.164E-02
  40 F= -.95759370E+02 E0= -.95758951E+02  d E =-.102952E-03
       N       E                     dE             d eps       ncg     rms          rms(c)
DAV:   1    -0.928013217205E+02   -0.97017E-04   -0.92887E-03  5712   0.261E-01    0.299E-02
DAV:   2    -0.928013502122E+02   -0.28492E-04   -0.39587E-04  6592   0.694E-02    0.220E-02
DAV:   3    -0.928013563450E+02   -0.61328E-05   -0.65349E-05  5808   0.371E-02
  41 F= -.95759518E+02 E0= -.95759094E+02  d E =-.251069E-03
       N       E                     dE             d eps       ncg     rms          rms(c)
DAV:   1    -0.928016103614E+02   -0.26015E-03   -0.21635E-02  5984   0.486E-01    0.309E-02
DAV:   2    -0.928017593627E+02   -0.14900E-03   -0.12550E-03  6536   0.136E-01    0.582E-02
DAV:   3    -0.928017139853E+02    0.45377E-04   -0.27957E-04  6160   0.756E-02    0.179E-02
DAV:   4    -0.928017126313E+02    0.13540E-05   -0.23871E-05  4760   0.207E-02
  42 F= -.95759840E+02 E0= -.95759399E+02  d E =-.322241E-03
       N       E                     dE             d eps       ncg     rms          rms(c)
DAV:   1    -0.928017110559E+02    0.29294E-05   -0.19615E-01  5984   0.146E+00    0.789E-02
DAV:   2    -0.928026876799E+02   -0.97662E-03   -0.98802E-03  6512   0.357E-01    0.820E-02
DAV:   3    -0.928027306363E+02   -0.42956E-04   -0.10656E-03  8064   0.115E-01    0.797E-02
DAV:   4    -0.928026630595E+02    0.67577E-04   -0.25199E-04  5504   0.588E-02    0.285E-02
DAV:   5    -0.928026685378E+02   -0.54782E-05   -0.12493E-04  5120   0.572E-02    0.239E-02
DAV:   6    -0.928026588293E+02    0.97085E-05   -0.47246E-05  4200   0.348E-02
  43 F= -.95760686E+02 E0= -.95760222E+02  d E =-.116755E-02
       N       E                     dE             d eps       ncg     rms          rms(c)
DAV:   1    -0.928001391805E+02    0.25294E-02   -0.78236E-01  5992   0.291E+00    0.156E-01
DAV:   2    -0.928039872116E+02   -0.38480E-02   -0.39326E-02  6696   0.709E-01    0.147E-01
DAV:   3    -0.928042682593E+02   -0.28105E-03   -0.42674E-03  8256   0.247E-01    0.165E-01
DAV:   4    -0.928039275252E+02    0.34073E-03   -0.10698E-03  6864   0.129E-01    0.504E-02
DAV:   5    -0.928039809887E+02   -0.53464E-04   -0.41527E-04  6600   0.103E-01    0.417E-02
DAV:   6    -0.928039291989E+02    0.51790E-04   -0.27486E-04  5680   0.854E-02    0.154E-02
DAV:   7    -0.928039314215E+02   -0.22226E-05   -0.35367E-05  5440   0.240E-02
  44 F= -.95761762E+02 E0= -.95761261E+02  d E =-.224404E-02
       N       E                     dE             d eps       ncg     rms          rms(c)
DAV:   1    -0.927890020985E+02    0.14927E-01   -0.31332E+00  5984   0.584E+00    0.315E-01
DAV:   2    -0.928045973708E+02   -0.15595E-01   -0.15861E-01  6736   0.142E+00    0.306E-01
DAV:   3    -0.928056208195E+02   -0.10234E-02   -0.17402E-02  8392   0.495E-01    0.330E-01
DAV:   4    -0.928042327046E+02    0.13881E-02   -0.42642E-03  7368   0.249E-01    0.101E-01
DAV:   5    -0.928044545270E+02   -0.22182E-03   -0.17000E-03  7328   0.212E-01    0.849E-02
DAV:   6    -0.928042367956E+02    0.21773E-03   -0.11260E-03  6688   0.175E-01    0.294E-02
DAV:   7    -0.928042467684E+02   -0.99729E-05   -0.12659E-04  7016   0.425E-02    0.157E-02
DAV:   8    -0.928042454326E+02    0.13359E-05   -0.10729E-05  4080   0.188E-02
  45 F= -.95761707E+02 E0= -.95761133E+02  d E =-.218842E-02
       N       E                     dE             d eps       ncg     rms          rms(c)
DAV:   1    -0.927997932938E+02    0.44535E-02   -0.96155E-01  5968   0.323E+00    0.174E-01
DAV:   2    -0.928044816611E+02   -0.46884E-02   -0.48092E-02  6544   0.780E-01    0.155E-01
DAV:   3    -0.928049048730E+02   -0.42321E-03   -0.52850E-03  8536   0.268E-01    0.191E-01
DAV:   4    -0.928044445373E+02    0.46034E-03   -0.14115E-03  7008   0.152E-01    0.549E-02
DAV:   5    -0.928045008737E+02   -0.56336E-04   -0.43633E-04  6672   0.110E-01    0.431E-02
DAV:   6    -0.928044491589E+02    0.51715E-04   -0.31856E-04  5824   0.870E-02    0.181E-02
DAV:   7    -0.928044499031E+02   -0.74425E-06   -0.38094E-05  5224   0.242E-02
  46 F= -.95762112E+02 E0= -.95761570E+02  d E =-.259410E-02
       N       E                     dE             d eps       ncg     rms          rms(c)
DAV:   1    -0.928042373983E+02    0.21176E-03   -0.99885E-02  5824   0.982E-01    0.841E-02
DAV:   2    -0.928046030835E+02   -0.36569E-03   -0.45183E-03  6744   0.221E-01    0.618E-02
DAV:   3    -0.928046750253E+02   -0.71942E-04   -0.86010E-04  7328   0.140E-01    0.824E-02
DAV:   4    -0.928045715672E+02    0.10346E-03   -0.36530E-04  6072   0.797E-02    0.343E-02
DAV:   5    -0.928045837752E+02   -0.12208E-04   -0.14062E-04  5464   0.552E-02    0.318E-02
DAV:   6    -0.928045597040E+02    0.24071E-04   -0.10780E-04  5320   0.519E-02    0.848E-03
DAV:   7    -0.928045593182E+02    0.38579E-06   -0.10686E-05  4000   0.195E-02
  47 F= -.95762120E+02 E0= -.95761546E+02  d E =-.817569E-05
       N       E                     dE             d eps       ncg     rms          rms(c)
DAV:   1    -0.928046599772E+02   -0.10027E-03   -0.24267E-02  5776   0.480E-01    0.416E-02
DAV:   2    -0.928047509007E+02   -0.90924E-04   -0.11459E-03  6856   0.120E-01    0.298E-02
DAV:   3    -0.928047695884E+02   -0.18688E-04   -0.19087E-04  6424   0.709E-02    0.393E-02
DAV:   4    -0.928047474670E+02    0.22121E-04   -0.85423E-05  5336   0.378E-02    0.185E-02
DAV:   5    -0.928047515275E+02   -0.40605E-05   -0.29417E-05  4480   0.255E-02
  48 F= -.95762363E+02 E0= -.95761806E+02  d E =-.250313E-03
       N       E                     dE             d eps       ncg     rms          rms(c)
DAV:   1    -0.928048943021E+02   -0.14684E-03   -0.89168E-03  5800   0.328E-01    0.206E-02
DAV:   2    -0.928049445108E+02   -0.50209E-04   -0.52618E-04  6632   0.824E-02    0.148E-02
DAV:   3    -0.928049477248E+02   -0.32140E-05   -0.43617E-05  5232   0.304E-02
  49 F= -.95762520E+02 E0= -.95761961E+02  d E =-.157063E-03
       N       E                     dE             d eps       ncg     rms          rms(c)
DAV:   1    -0.928050824590E+02   -0.13795E-03   -0.81405E-02  5880   0.980E-01    0.592E-02
DAV:   2    -0.928054895541E+02   -0.40710E-03   -0.43185E-03  6888   0.226E-01    0.359E-02
DAV:   3    -0.928055081015E+02   -0.18547E-04   -0.22893E-04  7816   0.566E-02    0.252E-02
DAV:   4    -0.928055293627E+02   -0.21261E-04   -0.10252E-04  5104   0.445E-02    0.392E-02
DAV:   5    -0.928055087248E+02    0.20638E-04   -0.73649E-05  4816   0.344E-02    0.130E-02
DAV:   6    -0.928055079604E+02    0.76438E-06   -0.88389E-06  4144   0.150E-02
  50 F= -.95762963E+02 E0= -.95762420E+02  d E =-.600252E-03
       N       E                     dE             d eps       ncg     rms          rms(c)
DAV:   1    -0.928047450697E+02    0.76366E-03   -0.32415E-01  5840   0.196E+00    0.116E-01
DAV:   2    -0.928063938197E+02   -0.16487E-02   -0.17392E-02  6840   0.456E-01    0.748E-02
DAV:   3    -0.928065936044E+02   -0.19978E-03   -0.16530E-03  8440   0.188E-01    0.106E-01
DAV:   4    -0.928064459448E+02    0.14766E-03   -0.60570E-04  6328   0.103E-01    0.418E-02
DAV:   5    -0.928064544471E+02   -0.85023E-05   -0.88003E-05  5976   0.437E-02
  51 F= -.95763677E+02 E0= -.95763158E+02  d E =-.131420E-02
       N       E                     dE             d eps       ncg     rms          rms(c)
DAV:   1    -0.928009015385E+02    0.55444E-02   -0.12973E+00  5864   0.391E+00    0.232E-01
DAV:   2    -0.928075039088E+02   -0.66024E-02   -0.69446E-02  6576   0.927E-01    0.155E-01
DAV:   3    -0.928083403792E+02   -0.83647E-03   -0.77271E-03  7936   0.437E-01    0.213E-01
DAV:   4    -0.928076945888E+02    0.64579E-03   -0.27588E-03  7496   0.236E-01    0.864E-02
DAV:   5    -0.928078082240E+02   -0.11364E-03   -0.72377E-04  6816   0.129E-01    0.784E-02
DAV:   6    -0.928076970951E+02    0.11113E-03   -0.66077E-04  6744   0.127E-01    0.256E-02
DAV:   7    -0.928076967447E+02    0.35042E-06   -0.81608E-05  6728   0.450E-02
  52 F= -.95764460E+02 E0= -.95763976E+02  d E =-.209752E-02
       N       E                     dE             d eps       ncg     rms          rms(c)
DAV:   1    -0.928067117710E+02    0.98532E-03   -0.13699E-01  5736   0.114E+00    0.103E-01
DAV:   2    -0.928071922222E+02   -0.48045E-03   -0.62062E-03  7024   0.258E-01    0.689E-02
DAV:   3    -0.928072147539E+02   -0.22532E-04   -0.70581E-04  8400   0.145E-01    0.631E-02
DAV:   4    -0.928071708639E+02    0.43890E-04   -0.34233E-04  6016   0.874E-02    0.406E-02
DAV:   5    -0.928071873780E+02   -0.16514E-04   -0.12771E-04  6112   0.459E-02    0.433E-02
DAV:   6    -0.928071612522E+02    0.26126E-04   -0.17063E-04  5248   0.574E-02    0.204E-02
DAV:   7    -0.928071558158E+02    0.54364E-05   -0.38253E-05  4512   0.297E-02
  53 F= -.95763918E+02 E0= -.95763467E+02  d E =0.542090E-03
       N       E                     dE             d eps       ncg     rms          rms(c)
DAV:   1    -0.928074944904E+02   -0.33324E-03   -0.70420E-02  5824   0.867E-01    0.827E-02
DAV:   2    -0.928078174688E+02   -0.32298E-03   -0.37748E-03  7184   0.194E-01    0.514E-02
DAV:   3    -0.928078518527E+02   -0.34384E-04   -0.43029E-04  6968   0.953E-02    0.634E-02
DAV:   4    -0.928078087200E+02    0.43133E-04   -0.19748E-04  5752   0.494E-02    0.324E-02
DAV:   5    -0.928078286749E+02   -0.19955E-04   -0.20959E-04  5248   0.633E-02    0.326E-02
DAV:   6    -0.928077965549E+02    0.32120E-04   -0.12442E-04  4608   0.540E-02    0.667E-03
DAV:   7    -0.928077969728E+02   -0.41784E-06   -0.74516E-06  4016   0.145E-02
  54 F= -.95764560E+02 E0= -.95764083E+02  d E =-.998508E-04
       N       E                     dE             d eps       ncg     rms          rms(c)
DAV:   1    -0.928077396335E+02    0.56921E-04   -0.59626E-02  5792   0.792E-01    0.447E-02
DAV:   2    -0.928080097757E+02   -0.27014E-03   -0.28510E-03  7104   0.187E-01    0.217E-02
DAV:   3    -0.928080207217E+02   -0.10946E-04   -0.14407E-04  6608   0.521E-02    0.189E-02
DAV:   4    -0.928080198612E+02    0.86054E-06   -0.32351E-05  4552   0.328E-02
  55 F= -.95764828E+02 E0= -.95764344E+02  d E =-.268305E-03
       N       E                     dE             d eps       ncg     rms          rms(c)
DAV:   1    -0.928068719345E+02    0.11488E-02   -0.32759E-01  5848   0.185E+00    0.104E-01
DAV:   2    -0.928083315995E+02   -0.14597E-02   -0.15322E-02  6840   0.429E-01    0.603E-02
DAV:   3    -0.928084440716E+02   -0.11247E-03   -0.10544E-03  8064   0.120E-01    0.836E-02
DAV:   4    -0.928083821897E+02    0.61882E-04   -0.23567E-04  5760   0.490E-02    0.396E-02
DAV:   5    -0.928084026413E+02   -0.20452E-04   -0.17927E-04  5104   0.628E-02    0.321E-02
DAV:   6    -0.928083819446E+02    0.20697E-04   -0.15046E-04  4504   0.657E-02    0.146E-02
DAV:   7    -0.928083804308E+02    0.15138E-05   -0.16607E-05  4176   0.256E-02
  56 F= -.95765296E+02 E0= -.95764794E+02  d E =-.736495E-03
       N       E                     dE             d eps       ncg     rms          rms(c)
DAV:   1    -0.928022250733E+02    0.61569E-02   -0.13089E+00  5848   0.371E+00    0.209E-01
DAV:   2    -0.928080560453E+02   -0.58310E-02   -0.61592E-02  6864   0.866E-01    0.103E-01
DAV:   3    -0.928083170967E+02   -0.26105E-03   -0.34238E-03  8072   0.246E-01    0.836E-02
DAV:   4    -0.928083311824E+02   -0.14086E-04   -0.10818E-03  7440   0.166E-01    0.741E-02
DAV:   5    -0.928083492722E+02   -0.18090E-04   -0.55246E-04  6712   0.993E-02    0.799E-02
DAV:   6    -0.928082952145E+02    0.54058E-04   -0.30658E-04  6048   0.583E-02    0.404E-02
DAV:   7    -0.928082840136E+02    0.11201E-04   -0.97378E-05  5984   0.527E-02    0.164E-02
DAV:   8    -0.928082802600E+02    0.37537E-05   -0.11674E-05  4104   0.201E-02
  57 F= -.95765418E+02 E0= -.95764871E+02  d E =-.857833E-03
       N       E                     dE             d eps       ncg     rms          rms(c)
DAV:   1    -0.928075827620E+02    0.70125E-03   -0.18927E-01  5848   0.141E+00    0.794E-02
DAV:   2    -0.928084260433E+02   -0.84328E-03   -0.88720E-03  6832   0.328E-01    0.397E-02
DAV:   3    -0.928084717054E+02   -0.45662E-04   -0.52717E-04  7784   0.105E-01    0.384E-02
DAV:   4    -0.928084658694E+02    0.58360E-05   -0.17396E-04  6056   0.660E-02    0.336E-02
DAV:   5    -0.928084632571E+02    0.26124E-05   -0.48861E-05  4912   0.252E-02
  58 F= -.95765515E+02 E0= -.95764981E+02  d E =-.955505E-03
       N       E                     dE             d eps       ncg     rms          rms(c)
DAV:   1    -0.928085128470E+02   -0.46978E-04   -0.33024E-03  5704   0.192E-01    0.201E-02
DAV:   2    -0.928085435264E+02   -0.30679E-04   -0.28195E-04  6736   0.817E-02    0.271E-02
DAV:   3    -0.928085289043E+02    0.14622E-04   -0.85827E-05  4992   0.504E-02    0.995E-03
DAV:   4    -0.928085299780E+02   -0.10737E-05   -0.15205E-05  4016   0.151E-02
  59 F= -.95765591E+02 E0= -.95765046E+02  d E =-.757673E-04
       N       E                     dE             d eps       ncg     rms          rms(c)
DAV:   1    -0.928085428337E+02   -0.13929E-04   -0.30076E-02  5776   0.563E-01    0.332E-02
DAV:   2    -0.928086807139E+02   -0.13788E-03   -0.14645E-03  6728   0.135E-01    0.205E-02
DAV:   3    -0.928086917431E+02   -0.11029E-04   -0.10230E-04  6216   0.396E-02    0.257E-02
DAV:   4    -0.928086850670E+02    0.66761E-05   -0.37457E-05  4632   0.275E-02
  60 F= -.95765774E+02 E0= -.95765216E+02  d E =-.258121E-03
       N       E                     dE             d eps       ncg     rms          rms(c)
DAV:   1    -0.928082547132E+02    0.43703E-03   -0.12009E-01  5808   0.112E+00    0.653E-02
DAV:   2    -0.928087789918E+02   -0.52428E-03   -0.56084E-03  6856   0.260E-01    0.383E-02
DAV:   3    -0.928088067093E+02   -0.27718E-04   -0.32072E-04  7136   0.681E-02    0.364E-02
DAV:   4    -0.928088083422E+02   -0.16329E-05   -0.12064E-04  5176   0.463E-02    0.357E-02
DAV:   5    -0.928087963731E+02    0.11969E-04   -0.35665E-05  4648   0.257E-02    0.122E-02
DAV:   6    -0.928087989116E+02   -0.25386E-05   -0.21160E-05  4072   0.219E-02
  61 F= -.95765943E+02 E0= -.95765370E+02  d E =-.427069E-03
