       N       E                     dE             d eps       ncg     rms          rms(c)
DAV:   1     0.433785698808E+03    0.43379E+03   -0.12991E+04  2000   0.834E+02
DAV:   2     0.252582486963E+02   -0.40853E+03   -0.38932E+03  2224   0.240E+02
DAV:   3    -0.729005955565E+02   -0.98159E+02   -0.94564E+02  3600   0.123E+02
DAV:   4    -0.838674707923E+02   -0.10967E+02   -0.10753E+02  3376   0.501E+01
DAV:   5    -0.842261996285E+02   -0.35873E+00   -0.35761E+00  3312   0.114E+01    0.345E+01
RMM:   6    -0.765341914845E+02    0.76920E+01   -0.27740E+01  2206   0.337E+01    0.113E+01
RMM:   7    -0.828301544303E+02   -0.62960E+01   -0.17791E+01  2442   0.230E+01    0.138E+01
RMM:   8    -0.753009503707E+02    0.75292E+01   -0.99529E+00  2666   0.139E+01    0.838E+00
RMM:   9    -0.741195753608E+02    0.11814E+01   -0.22157E+00  2268   0.978E+00    0.324E+00
RMM:  10    -0.741059238580E+02    0.13652E-01   -0.11632E+00  2569   0.311E+00    0.134E+00
RMM:  11    -0.740896582241E+02    0.16266E-01   -0.19679E-01  2696   0.203E+00    0.625E-01
RMM:  12    -0.740853517054E+02    0.43065E-02   -0.52633E-02  2254   0.129E+00    0.349E-01
RMM:  13    -0.740854737649E+02   -0.12206E-03   -0.25770E-02  2763   0.546E-01    0.182E-01
RMM:  14    -0.740839952602E+02    0.14785E-02   -0.69700E-03  2378   0.436E-01    0.971E-02
RMM:  15    -0.740835961568E+02    0.39910E-03   -0.63388E-03  2581   0.228E-01    0.847E-02
RMM:  16    -0.740835271275E+02    0.69029E-04   -0.12149E-03  2612   0.157E-01    0.560E-02
RMM:  17    -0.740839168439E+02   -0.38972E-03   -0.81628E-04  2572   0.120E-01    0.313E-02
RMM:  18    -0.740844180214E+02   -0.50118E-03   -0.43975E-04  2424   0.746E-02    0.262E-02
RMM:  19    -0.740846404191E+02   -0.22240E-03   -0.26443E-04  2315   0.582E-02    0.191E-02
RMM:  20    -0.740850822652E+02   -0.44185E-03   -0.70855E-05  1824   0.450E-02    0.885E-03
RMM:  21    -0.740855730528E+02   -0.49079E-03   -0.67168E-05  1783   0.308E-02    0.854E-03
RMM:  22    -0.740857721666E+02   -0.19911E-03   -0.25860E-05  1478   0.289E-02    0.501E-03
RMM:  23    -0.740858664034E+02   -0.94237E-04   -0.16622E-05  1376   0.216E-02    0.367E-03
RMM:  24    -0.740858703445E+02   -0.39410E-05   -0.54502E-06  1282   0.192E-02
   1 F= -.77162950E+02 E0= -.77163748E+02  d E =-.771630E+02
       N       E                     dE             d eps       ncg     rms          rms(c)
DAV:   1     0.753595863451E+01    0.81622E+02   -0.12971E+03  2336   0.141E+02    0.158E+01
RMM:   2    -0.104099038419E+02   -0.17946E+02   -0.20169E+02  2670   0.601E+01    0.165E+01
RMM:   3    -0.123903608823E+02   -0.19805E+01   -0.36923E+01  2767   0.215E+01    0.174E+01
RMM:   4    -0.123340193282E+02    0.56342E-01   -0.62113E+00  2780   0.790E+00    0.181E+01
RMM:   5    -0.138058935410E+02   -0.14719E+01   -0.22279E+00  2651   0.489E+00    0.203E+01
RMM:   6    -0.186974596428E+02   -0.48916E+01   -0.53824E+00  2714   0.812E+00    0.259E+01
RMM:   7    -0.480528138403E+02   -0.29355E+02   -0.15884E+01  2949   0.127E+01    0.333E+01
RMM:   8    -0.315698871395E+02    0.16483E+02   -0.25125E+00  2633   0.619E+00    0.302E+01
RMM:   9    -0.258921682753E+02    0.56777E+01   -0.63481E+01  3374   0.273E+01    0.180E+01
RMM:  10    -0.117873613351E+02    0.14105E+02   -0.17804E+01  3112   0.161E+01    0.734E+00
RMM:  11    -0.171222199504E+02   -0.53349E+01   -0.60359E+00  2762   0.609E+00    0.211E+01
RMM:  12    -0.180092488011E+02   -0.88703E+00   -0.50812E-01  2744   0.204E+00    0.214E+01
RMM:  13    -0.177568915349E+02    0.25236E+00   -0.71458E-02  2824   0.652E-01    0.212E+01
RMM:  14    -0.140067055553E+02    0.37502E+01   -0.64170E-01  2634   0.267E+00    0.181E+01
RMM:  15    -0.130073766089E+02    0.99933E+00   -0.14885E-01  2645   0.112E+00    0.170E+01
RMM:  16    -0.121224296634E+02    0.88495E+00   -0.87678E-02  2548   0.102E+00    0.158E+01
RMM:  17    -0.104486389419E+02    0.16738E+01   -0.42353E-01  2874   0.182E+00    0.117E+01
RMM:  18    -0.107060569356E+02   -0.25742E+00   -0.66506E-02  2708   0.122E+00    0.125E+01
RMM:  19    -0.104505330938E+02    0.25552E+00   -0.54734E-02  2641   0.120E+00    0.111E+01
RMM:  20    -0.987085048950E+01    0.57968E+00   -0.19813E+00  3268   0.396E+00    0.367E+00
RMM:  21    -0.102869771109E+02   -0.41613E+00   -0.72332E-01  3086   0.267E+00    0.691E+00
RMM:  22    -0.105698799463E+02   -0.28290E+00   -0.11102E-01  2831   0.884E-01    0.808E+00
RMM:  23    -0.106421992016E+02   -0.72319E-01   -0.10377E-02  2746   0.287E-01    0.828E+00
RMM:  24    -0.106075588926E+02    0.34640E-01   -0.19895E-03  2545   0.164E-01    0.829E+00
RMM:  25    -0.109262439881E+02   -0.31869E+00   -0.44452E-02  3152   0.791E-01    0.839E+00
RMM:  26    -0.106781884376E+02    0.24806E+00   -0.10954E-01  3140   0.951E-01    0.742E+00
RMM:  27    -0.104172151970E+02    0.26097E+00   -0.40739E-02  3054   0.556E-01    0.672E+00
RMM:  28    -0.990776464930E+01    0.50945E+00   -0.88975E-02  3038   0.670E-01    0.489E+00
RMM:  29    -0.974714236702E+01    0.16062E+00   -0.31325E-02  2858   0.429E-01    0.317E+00
RMM:  30    -0.975599899113E+01   -0.88566E-02   -0.68550E-03  2603   0.287E-01    0.333E+00
RMM:  31    -0.967580268555E+01    0.80196E-01   -0.53739E-02  3051   0.588E-01    0.146E+00
RMM:  32    -0.970170999279E+01   -0.25907E-01   -0.20759E-02  2657   0.448E-01    0.217E+00
RMM:  33    -0.966916020775E+01    0.32550E-01   -0.92730E-03  2622   0.327E-01    0.730E-01
RMM:  34    -0.966888756089E+01    0.27265E-03   -0.15156E-03  2464   0.176E-01    0.739E-01
RMM:  35    -0.967137051330E+01   -0.24830E-02   -0.36507E-03  2716   0.210E-01    0.112E+00
RMM:  36    -0.966389890525E+01    0.74716E-02   -0.22729E-03  2698   0.166E-01    0.534E-01
RMM:  37    -0.966402042932E+01   -0.12152E-03   -0.11844E-03  2654   0.140E-01    0.634E-01
RMM:  38    -0.966144702435E+01    0.25734E-02   -0.20530E-03  2862   0.158E-01    0.414E-01
RMM:  39    -0.965955966789E+01    0.18874E-02   -0.86506E-04  2662   0.119E-01    0.357E-01
RMM:  40    -0.965900646337E+01    0.55320E-03   -0.15682E-03  2611   0.119E-01    0.287E-01
RMM:  41    -0.965843320686E+01    0.57326E-03   -0.23469E-04  2264   0.715E-02    0.214E-01
RMM:  42    -0.965853511224E+01   -0.10191E-03   -0.81732E-05  1844   0.443E-02    0.208E-01
RMM:  43    -0.965843806533E+01    0.97047E-04   -0.76103E-05  1819   0.462E-02    0.179E-01
RMM:  44    -0.965816454346E+01    0.27352E-03   -0.47361E-04  2841   0.896E-02    0.160E-01
RMM:  45    -0.965792403031E+01    0.24051E-03   -0.48834E-04  2935   0.894E-02    0.116E-01
RMM:  46    -0.965778066236E+01    0.14337E-03   -0.99286E-05  2113   0.430E-02    0.955E-02
RMM:  47    -0.965769164866E+01    0.89014E-04   -0.74732E-05  1856   0.388E-02    0.385E-02
RMM:  48    -0.965774218863E+01   -0.50540E-04   -0.40671E-05  1615   0.346E-02    0.604E-02
RMM:  49    -0.965776737365E+01   -0.25185E-04   -0.55980E-05  1753   0.330E-02    0.101E-01
RMM:  50    -0.965771852406E+01    0.48850E-04   -0.18783E-05  1381   0.297E-02    0.700E-02
RMM:  51    -0.965775175809E+01   -0.33234E-04   -0.17393E-05  1345   0.220E-02    0.824E-02
RMM:  52    -0.965771336300E+01    0.38395E-04   -0.62594E-06  1259   0.217E-02    0.274E-02
RMM:  53    -0.965773301554E+01   -0.19653E-04   -0.46497E-06  1259   0.127E-02    0.126E-02
RMM:  54    -0.965773968906E+01   -0.66735E-05   -0.24556E-06  1253   0.123E-02
   2 F= -.12781862E+02 E0= -.12789155E+02  d E =0.643811E+02
       N       E                     dE             d eps       ncg     rms          rms(c)
DAV:   1    -0.687082046226E+02   -0.59050E+02   -0.10367E+03  2288   0.126E+02    0.219E+01
RMM:   2    -0.800188792267E+02   -0.11311E+02   -0.16548E+02  2666   0.513E+01    0.174E+01
RMM:   3    -0.788020201020E+02    0.12169E+01   -0.17175E+01  2577   0.184E+01    0.164E+01
RMM:   4    -0.769263957545E+02    0.18756E+01   -0.35317E+00  2438   0.106E+01    0.132E+01
RMM:   5    -0.769852096062E+02   -0.58814E-01   -0.15892E+01  2655   0.156E+01    0.111E+01
RMM:   6    -0.747924626049E+02    0.21927E+01   -0.25903E+00  2154   0.116E+01    0.417E+00
RMM:   7    -0.765783859063E+02   -0.17859E+01   -0.22550E+00  2633   0.727E+00    0.988E+00
RMM:   8    -0.751710108473E+02    0.14074E+01   -0.41242E-01  2097   0.465E+00    0.550E+00
RMM:   9    -0.747360592071E+02    0.43495E+00   -0.16418E+00  2664   0.469E+00    0.764E-01
RMM:  10    -0.747578155021E+02   -0.21756E-01   -0.14741E-01  2701   0.156E+00    0.514E-01
RMM:  11    -0.747652072219E+02   -0.73917E-02   -0.50894E-02  2732   0.818E-01    0.611E-01
RMM:  12    -0.747581157338E+02    0.70915E-02   -0.22072E-02  2557   0.655E-01    0.147E-01
RMM:  13    -0.747585436190E+02   -0.42789E-03   -0.38971E-03  2731   0.229E-01    0.123E-01
RMM:  14    -0.747585978087E+02   -0.54190E-04   -0.56676E-04  2499   0.946E-02    0.804E-02
RMM:  15    -0.747594277179E+02   -0.82991E-03   -0.43174E-03  2601   0.293E-01    0.182E-01
RMM:  16    -0.747590346829E+02    0.39304E-03   -0.24071E-03  2400   0.215E-01    0.330E-02
RMM:  17    -0.747594669823E+02   -0.43230E-03   -0.34954E-04  2021   0.116E-01    0.756E-02
RMM:  18    -0.747597014078E+02   -0.23443E-03   -0.72815E-04  2283   0.134E-01    0.370E-02
RMM:  19    -0.747597568232E+02   -0.55415E-04   -0.57537E-05  1702   0.334E-02    0.299E-02
RMM:  20    -0.747598721496E+02   -0.11533E-03   -0.71499E-05  1731   0.489E-02    0.659E-03
RMM:  21    -0.747600028201E+02   -0.13067E-03   -0.31361E-05  1463   0.216E-02    0.666E-03
RMM:  22    -0.747600274663E+02   -0.24646E-04   -0.11554E-05  1341   0.262E-02    0.604E-03
RMM:  23    -0.747600412061E+02   -0.13740E-04   -0.11674E-05  1323   0.250E-02    0.112E-02
RMM:  24    -0.747600517172E+02   -0.10511E-04   -0.38014E-06  1263   0.181E-02    0.491E-03
RMM:  25    -0.747600565004E+02   -0.47832E-05   -0.22477E-06  1081   0.592E-03
   3 F= -.77839291E+02 E0= -.77841264E+02  d E =-.676341E+00
       N       E                     dE             d eps       ncg     rms          rms(c)
DAV:   1    -0.750003943611E+02   -0.24034E+00   -0.18898E+00  2336   0.530E+00    0.152E+00
RMM:   2    -0.749984902833E+02    0.19041E-02   -0.60854E-02  2385   0.151E+00    0.120E+00
RMM:   3    -0.750282130533E+02   -0.29723E-01   -0.47559E-02  2592   0.944E-01    0.906E-01
RMM:   4    -0.749985606994E+02    0.29652E-01   -0.23441E-02  2384   0.790E-01    0.246E-01
RMM:   5    -0.749966673887E+02    0.18933E-02   -0.53842E-03  2081   0.606E-01    0.159E-01
RMM:   6    -0.749966878462E+02   -0.20458E-04   -0.38990E-03  2570   0.209E-01    0.350E-02
RMM:   7    -0.749967202927E+02   -0.32446E-04   -0.48433E-04  2443   0.774E-02    0.226E-02
RMM:   8    -0.749967265530E+02   -0.62603E-05   -0.83497E-05  1780   0.558E-02
   4 F= -.78077202E+02 E0= -.78079593E+02  d E =-.914252E+00
       N       E                     dE             d eps       ncg     rms          rms(c)
DAV:   1    -0.752004903258E+02   -0.20377E+00   -0.66329E+00  2128   0.995E+00    0.265E+00
RMM:   2    -0.751962565425E+02    0.42338E-02   -0.20060E-01  2401   0.275E+00    0.199E+00
RMM:   3    -0.752975362187E+02   -0.10128E+00   -0.16485E-01  2583   0.171E+00    0.156E+00
RMM:   4    -0.751967825130E+02    0.10075E+00   -0.71657E-02  2405   0.137E+00    0.354E-01
RMM:   5    -0.751926440286E+02    0.41385E-02   -0.15509E-02  2091   0.980E-01    0.241E-01
RMM:   6    -0.751928747657E+02   -0.23074E-03   -0.10883E-02  2583   0.353E-01    0.682E-02
RMM:   7    -0.751929436162E+02   -0.68850E-04   -0.12669E-03  2682   0.132E-01    0.435E-02
RMM:   8    -0.751929595315E+02   -0.15915E-04   -0.23730E-04  2113   0.103E-01    0.168E-02
RMM:   9    -0.751929813794E+02   -0.21848E-04   -0.10840E-04  1880   0.475E-02    0.852E-03
RMM:  10    -0.751929904709E+02   -0.90915E-05   -0.25930E-05  1470   0.265E-02
   5 F= -.78275815E+02 E0= -.78278530E+02  d E =-.111286E+01
       N       E                     dE             d eps       ncg     rms          rms(c)
DAV:   1    -0.751969427549E+02   -0.39614E-02   -0.16456E-01  2424   0.159E+00    0.379E-01
RMM:   2    -0.751969616564E+02   -0.18902E-04   -0.57396E-03  2471   0.422E-01    0.285E-01
RMM:   3    -0.751983904720E+02   -0.14288E-02   -0.23593E-03  2662   0.203E-01    0.168E-01
RMM:   4    -0.751971157027E+02    0.12748E-02   -0.15395E-03  2459   0.181E-01    0.712E-02
RMM:   5    -0.751968895044E+02    0.22620E-03   -0.21778E-04  2153   0.936E-02    0.145E-02
RMM:   6    -0.751968977411E+02   -0.82367E-05   -0.95517E-05  1918   0.413E-02
   6 F= -.78280097E+02 E0= -.78282823E+02  d E =-.111715E+01
       N       E                     dE             d eps       ncg     rms          rms(c)
DAV:   1    -0.755281349802E+02   -0.33125E+00   -0.26683E+01  2320   0.185E+01    0.558E+00
RMM:   2    -0.768973149589E+02   -0.13692E+01   -0.62553E+00  2652   0.110E+01    0.624E+00
RMM:   3    -0.754243068533E+02    0.14730E+01   -0.14030E+00  2553   0.583E+00    0.311E+00
RMM:   4    -0.751921492789E+02    0.23216E+00   -0.53404E-01  2572   0.319E+00    0.209E+00
RMM:   5    -0.751870583806E+02    0.50909E-02   -0.17159E-01  2704   0.149E+00    0.149E+00
RMM:   6    -0.751827931138E+02    0.42653E-02   -0.10328E-01  2605   0.125E+00    0.532E-01
RMM:   7    -0.751761480552E+02    0.66451E-02   -0.93310E-03  2025   0.746E-01    0.380E-01
RMM:   8    -0.751744823266E+02    0.16657E-02   -0.89766E-03  2677   0.326E-01    0.153E-01
RMM:   9    -0.751745032415E+02   -0.20915E-04   -0.22391E-03  2636   0.146E-01    0.610E-02
RMM:  10    -0.751746318905E+02   -0.12865E-03   -0.24812E-04  2265   0.877E-02    0.596E-02
RMM:  11    -0.751745962235E+02    0.35667E-04   -0.38243E-04  2226   0.666E-02    0.858E-03
RMM:  12    -0.751746125321E+02   -0.16309E-04   -0.59867E-05  1778   0.300E-02    0.112E-02
RMM:  13    -0.751746192741E+02   -0.67420E-05   -0.10692E-05  1289   0.264E-02
   7 F= -.78271057E+02 E0= -.78273625E+02  d E =0.903920E-02
       N       E                     dE             d eps       ncg     rms          rms(c)
DAV:   1    -0.755081578120E+02   -0.33355E+00   -0.79759E+00  2240   0.101E+01    0.258E+00
RMM:   2    -0.756165371095E+02   -0.10838E+00   -0.71696E-01  2611   0.412E+00    0.254E+00
RMM:   3    -0.754900084529E+02    0.12653E+00   -0.25146E-01  2365   0.286E+00    0.127E+00
RMM:   4    -0.754653531406E+02    0.24655E-01   -0.80137E-02  2545   0.136E+00    0.977E-01
RMM:   5    -0.754490076008E+02    0.16346E-01   -0.29251E-02  2375   0.834E-01    0.242E-01
RMM:   6    -0.754494205021E+02   -0.41290E-03   -0.71200E-03  2639   0.369E-01    0.121E-01
RMM:   7    -0.754491327320E+02    0.28777E-03   -0.10846E-03  2509   0.166E-01    0.549E-02
RMM:   8    -0.754491213141E+02    0.11418E-04   -0.37306E-04  2407   0.930E-02    0.228E-02
RMM:   9    -0.754491243939E+02   -0.30799E-05   -0.83311E-05  1862   0.499E-02
   8 F= -.78538436E+02 E0= -.78541153E+02  d E =-.258339E+00
       N       E                     dE             d eps       ncg     rms          rms(c)
DAV:   1    -0.754444305725E+02    0.46907E-02   -0.13244E+01  2000   0.144E+01    0.251E+00
RMM:   2    -0.754562028763E+02   -0.11772E-01   -0.37809E-01  2318   0.443E+00    0.205E+00
RMM:   3    -0.755115304882E+02   -0.55328E-01   -0.18926E-01  2673   0.182E+00    0.182E+00
RMM:   4    -0.754579233262E+02    0.53607E-01   -0.71657E-02  2542   0.119E+00    0.461E-01
RMM:   5    -0.754525723085E+02    0.53510E-02   -0.11758E-02  2084   0.782E-01    0.180E-01
RMM:   6    -0.754522203288E+02    0.35198E-03   -0.50730E-03  2575   0.375E-01    0.919E-02
RMM:   7    -0.754522474934E+02   -0.27165E-04   -0.13877E-03  2656   0.122E-01    0.590E-02
RMM:   8    -0.754522106444E+02    0.36849E-04   -0.25711E-04  2138   0.107E-01    0.337E-02
RMM:   9    -0.754522406895E+02   -0.30045E-04   -0.15142E-04  2122   0.450E-02    0.112E-02
RMM:  10    -0.754522542842E+02   -0.13595E-04   -0.27747E-05  1519   0.372E-02    0.478E-03
RMM:  11    -0.754522755338E+02   -0.21250E-04   -0.13599E-05  1347   0.173E-02    0.248E-03
RMM:  12    -0.754522880057E+02   -0.12472E-04   -0.58829E-06  1271   0.205E-02    0.221E-03
RMM:  13    -0.754522990776E+02   -0.11072E-04   -0.44178E-06  1265   0.103E-02    0.187E-03
RMM:  14    -0.754523138011E+02   -0.14723E-04   -0.51482E-06  1278   0.152E-02    0.321E-03
RMM:  15    -0.754523191101E+02   -0.53090E-05   -0.33019E-06  1267   0.118E-02
   9 F= -.78546399E+02 E0= -.78548931E+02  d E =-.796314E-02
       N       E                     dE             d eps       ncg     rms          rms(c)
DAV:   1    -0.754809682652E+02   -0.28654E-01   -0.30416E+00  2000   0.693E+00    0.124E+00
RMM:   2    -0.754871678016E+02   -0.61995E-02   -0.10848E-01  2531   0.175E+00    0.814E-01
RMM:   3    -0.755065762014E+02   -0.19408E-01   -0.36720E-02  2680   0.843E-01    0.759E-01
RMM:   4    -0.754863341860E+02    0.20242E-01   -0.15500E-02  2475   0.572E-01    0.200E-01
RMM:   5    -0.754858541686E+02    0.48002E-03   -0.34901E-03  2379   0.333E-01    0.778E-02
RMM:   6    -0.754856845155E+02    0.16965E-03   -0.79861E-04  2273   0.182E-01    0.310E-02
RMM:   7    -0.754857131179E+02   -0.28602E-04   -0.38640E-04  2253   0.599E-02    0.217E-02
RMM:   8    -0.754857125565E+02    0.56147E-06   -0.65846E-05  1724   0.503E-02
  10 F= -.78577483E+02 E0= -.78580092E+02  d E =-.390470E-01
       N       E                     dE             d eps       ncg     rms          rms(c)
DAV:   1    -0.755236455338E+02   -0.37932E-01   -0.71795E-01  2000   0.336E+00    0.358E-01
RMM:   2    -0.755275816298E+02   -0.39361E-02   -0.55527E-02  2384   0.153E+00    0.290E-01
RMM:   3    -0.755283582196E+02   -0.77659E-03   -0.14679E-02  2701   0.509E-01    0.161E-01
RMM:   4    -0.755285652317E+02   -0.20701E-03   -0.20344E-03  2574   0.183E-01    0.129E-01
RMM:   5    -0.755284451120E+02    0.12012E-03   -0.74912E-04  2577   0.131E-01    0.112E-01
RMM:   6    -0.755282011664E+02    0.24395E-03   -0.59611E-04  2549   0.110E-01    0.404E-02
RMM:   7    -0.755281753509E+02    0.25815E-04   -0.83299E-05  1899   0.520E-02    0.151E-02
RMM:   8    -0.755281748956E+02    0.45538E-06   -0.17521E-05  1393   0.301E-02
  11 F= -.78620642E+02 E0= -.78623344E+02  d E =-.431594E-01
       N       E                     dE             d eps       ncg     rms          rms(c)
DAV:   1    -0.755417461927E+02   -0.13571E-01   -0.18356E+00  2000   0.538E+00    0.572E-01
RMM:   2    -0.755518134878E+02   -0.10067E-01   -0.14214E-01  2375   0.246E+00    0.458E-01
RMM:   3    -0.755538392296E+02   -0.20257E-02   -0.38352E-02  2691   0.829E-01    0.248E-01
RMM:   4    -0.755543215507E+02   -0.48232E-03   -0.52817E-03  2594   0.292E-01    0.199E-01
RMM:   5    -0.755539897708E+02    0.33178E-03   -0.18373E-03  2588   0.206E-01    0.171E-01
RMM:   6    -0.755534024799E+02    0.58729E-03   -0.14515E-03  2652   0.169E-01    0.634E-02
RMM:   7    -0.755533308649E+02    0.71615E-04   -0.22187E-04  2257   0.794E-02    0.229E-02
RMM:   8    -0.755533279854E+02    0.28795E-05   -0.51319E-05  1680   0.381E-02
  12 F= -.78647165E+02 E0= -.78649940E+02  d E =-.696815E-01
       N       E                     dE             d eps       ncg     rms          rms(c)
DAV:   1    -0.755525684172E+02    0.76245E-03   -0.17288E+00  2128   0.518E+00    0.624E-01
RMM:   2    -0.755662479534E+02   -0.13680E-01   -0.91485E-02  2375   0.200E+00    0.923E-01
RMM:   3    -0.755524026809E+02    0.13845E-01   -0.28957E-02  2476   0.909E-01    0.289E-01
RMM:   4    -0.755517083463E+02    0.69433E-03   -0.46662E-03  2476   0.333E-01    0.204E-01
RMM:   5    -0.755515523631E+02    0.15598E-03   -0.10009E-03  2387   0.182E-01    0.117E-01
RMM:   6    -0.755513913403E+02    0.16102E-03   -0.79196E-04  2352   0.156E-01    0.331E-02
RMM:   7    -0.755513932114E+02   -0.18711E-05   -0.19199E-04  2117   0.679E-02    0.154E-02
RMM:   8    -0.755513957090E+02   -0.24976E-05   -0.28167E-05  1515   0.384E-02
  13 F= -.78644002E+02 E0= -.78646822E+02  d E =0.316243E-02
       N       E                     dE             d eps       ncg     rms          rms(c)
DAV:   1    -0.755584976075E+02   -0.71044E-02   -0.56218E-01  2032   0.295E+00    0.378E-01
RMM:   2    -0.755637356744E+02   -0.52381E-02   -0.32500E-02  2369   0.120E+00    0.537E-01
RMM:   3    -0.755583249310E+02    0.54107E-02   -0.96158E-03  2438   0.519E-01    0.179E-01
RMM:   4    -0.755579894886E+02    0.33544E-03   -0.15551E-03  2444   0.199E-01    0.129E-01
RMM:   5    -0.755578761636E+02    0.11333E-03   -0.34167E-04  2231   0.119E-01    0.661E-02
RMM:   6    -0.755578455236E+02    0.30640E-04   -0.38402E-04  2256   0.900E-02    0.249E-02
RMM:   7    -0.755578405426E+02    0.49809E-05   -0.53022E-05  1675   0.418E-02
  14 F= -.78651145E+02 E0= -.78653945E+02  d E =-.398079E-02
       N       E                     dE             d eps       ncg     rms          rms(c)
DAV:   1    -0.755637846187E+02   -0.59391E-02   -0.15024E-01  2200   0.140E+00    0.487E-01
RMM:   2    -0.755654166516E+02   -0.16320E-02   -0.10612E-02  2600   0.517E-01    0.386E-01
RMM:   3    -0.755640596009E+02    0.13571E-02   -0.67558E-03  2601   0.391E-01    0.316E-01
RMM:   4    -0.755635196825E+02    0.53992E-03   -0.27706E-03  2442   0.258E-01    0.197E-01
RMM:   5    -0.755623624490E+02    0.11572E-02   -0.98299E-04  2186   0.209E-01    0.262E-02
RMM:   6    -0.755624009326E+02   -0.38484E-04   -0.47080E-04  2329   0.693E-02    0.138E-02
RMM:   7    -0.755624040758E+02   -0.31432E-05   -0.54682E-05  1627   0.420E-02
  15 F= -.78654133E+02 E0= -.78656966E+02  d E =-.298748E-02
       N       E                     dE             d eps       ncg     rms          rms(c)
DAV:   1    -0.755623137202E+02    0.87212E-04   -0.44101E-03  2576   0.240E-01    0.858E-02
RMM:   2    -0.755623812331E+02   -0.67513E-04   -0.38639E-04  2369   0.991E-02    0.709E-02
RMM:   3    -0.755623056626E+02    0.75571E-04   -0.20145E-04  2117   0.743E-02    0.541E-02
RMM:   4    -0.755622958137E+02    0.98489E-05   -0.10579E-04  1932   0.514E-02    0.377E-02
RMM:   5    -0.755622612034E+02    0.34610E-04   -0.24794E-05  1495   0.393E-02    0.759E-03
RMM:   6    -0.755622624236E+02   -0.12201E-05   -0.13626E-05  1327   0.194E-02
  16 F= -.78654260E+02 E0= -.78657074E+02  d E =-.311436E-02
       N       E                     dE             d eps       ncg     rms          rms(c)
DAV:   1    -0.755654623924E+02   -0.32012E-02   -0.12993E-01  2000   0.146E+00    0.115E-01
RMM:   2    -0.755659861099E+02   -0.52372E-03   -0.56838E-03  2367   0.471E-01    0.111E-01
RMM:   3    -0.755659622633E+02    0.23847E-04   -0.14784E-03  2677   0.174E-01    0.653E-02
RMM:   4    -0.755659034313E+02    0.58832E-04   -0.17033E-04  2196   0.585E-02    0.478E-02
RMM:   5    -0.755658903202E+02    0.13111E-04   -0.76799E-05  1863   0.491E-02    0.312E-02
RMM:   6    -0.755658753035E+02    0.15017E-04   -0.59184E-05  1699   0.397E-02    0.534E-03
RMM:   7    -0.755658762985E+02   -0.99501E-06   -0.10737E-05  1290   0.273E-02
  17 F= -.78657085E+02 E0= -.78659985E+02  d E =-.282579E-02
       N       E                     dE             d eps       ncg     rms          rms(c)
DAV:   1    -0.755680538541E+02   -0.21786E-02   -0.11690E+00  2000   0.439E+00    0.337E-01
RMM:   2    -0.755727494162E+02   -0.46956E-02   -0.50553E-02  2372   0.140E+00    0.319E-01
RMM:   3    -0.755726238854E+02    0.12553E-03   -0.13241E-02  2727   0.520E-01    0.192E-01
RMM:   4    -0.755721278353E+02    0.49605E-03   -0.15454E-03  2668   0.167E-01    0.134E-01
RMM:   5    -0.755720176618E+02    0.11017E-03   -0.80090E-04  2501   0.131E-01    0.950E-02
RMM:   6    -0.755718484187E+02    0.16924E-03   -0.51132E-04  2462   0.107E-01    0.137E-02
RMM:   7    -0.755718510473E+02   -0.26286E-05   -0.66285E-05  1729   0.438E-02
  18 F= -.78660758E+02 E0= -.78663886E+02  d E =-.649843E-02
       N       E                     dE             d eps       ncg     rms          rms(c)
DAV:   1    -0.755687040187E+02    0.31444E-02   -0.17577E-01  2008   0.144E+00    0.282E-01
RMM:   2    -0.755696785443E+02   -0.97453E-03   -0.14465E-02  2648   0.562E-01    0.277E-01
RMM:   3    -0.755690203685E+02    0.65818E-03   -0.25517E-03  2641   0.218E-01    0.149E-01
RMM:   4    -0.755692826917E+02   -0.26232E-03   -0.11073E-03  2498   0.151E-01    0.109E-01
RMM:   5    -0.755688255223E+02    0.45717E-03   -0.37068E-04  2185   0.121E-01    0.410E-02
RMM:   6    -0.755687964131E+02    0.29109E-04   -0.10132E-04  1867   0.646E-02    0.135E-02
RMM:   7    -0.755687996897E+02   -0.32766E-05   -0.37166E-05  1572   0.334E-02
  19 F= -.78656648E+02 E0= -.78659809E+02  d E =0.411023E-02
       N       E                     dE             d eps       ncg     rms          rms(c)
DAV:   1    -0.755724616889E+02   -0.36653E-02   -0.10435E-01  2008   0.110E+00    0.215E-01
RMM:   2    -0.755730363314E+02   -0.57464E-03   -0.85697E-03  2628   0.432E-01    0.213E-01
RMM:   3    -0.755726439221E+02    0.39241E-03   -0.15242E-03  2556   0.171E-01    0.112E-01
RMM:   4    -0.755728096343E+02   -0.16571E-03   -0.64546E-04  2471   0.116E-01    0.824E-02
RMM:   5    -0.755725365843E+02    0.27305E-03   -0.21367E-04  2040   0.893E-02    0.322E-02
RMM:   6    -0.755725238352E+02    0.12749E-04   -0.60493E-05  1765   0.516E-02    0.108E-02
RMM:   7    -0.755725255075E+02   -0.16723E-05   -0.17694E-05  1404   0.268E-02
  20 F= -.78661187E+02 E0= -.78664325E+02  d E =-.428977E-03
       N       E                     dE             d eps       ncg     rms          rms(c)
DAV:   1    -0.755732706700E+02   -0.74683E-03   -0.78499E-02  2400   0.111E+00    0.891E-02
RMM:   2    -0.755734304787E+02   -0.15981E-03   -0.23260E-03  2328   0.278E-01    0.957E-02
RMM:   3    -0.755734649497E+02   -0.34471E-04   -0.47076E-04  2032   0.952E-02    0.826E-02
RMM:   4    -0.755735607782E+02   -0.95828E-04   -0.19108E-04  2010   0.924E-02    0.552E-02
RMM:   5    -0.755734670652E+02    0.93713E-04   -0.49737E-05  1697   0.460E-02    0.217E-02
RMM:   6    -0.755734601743E+02    0.68909E-05   -0.35106E-05  1516   0.338E-02
  21 F= -.78661701E+02 E0= -.78664815E+02  d E =-.513743E-03
       N       E                     dE             d eps       ncg     rms          rms(c)
DAV:   1    -0.755738477901E+02   -0.38072E-03   -0.10920E-01  2000   0.132E+00    0.105E-01
RMM:   2    -0.755740730498E+02   -0.22526E-03   -0.32823E-03  2350   0.332E-01    0.111E-01
RMM:   3    -0.755741375248E+02   -0.64475E-04   -0.79303E-04  2144   0.116E-01    0.947E-02
RMM:   4    -0.755742598564E+02   -0.12233E-03   -0.25403E-04  2056   0.109E-01    0.651E-02
RMM:   5    -0.755741406023E+02    0.11925E-03   -0.64469E-05  1753   0.507E-02    0.277E-02
RMM:   6    -0.755741322623E+02    0.83400E-05   -0.52349E-05  1674   0.401E-02
  22 F= -.78661873E+02 E0= -.78664968E+02  d E =-.685568E-03
       N       E                     dE             d eps       ncg     rms          rms(c)
DAV:   1    -0.755746637684E+02   -0.52317E-03   -0.12166E-02  2272   0.447E-01    0.431E-02
RMM:   2    -0.755747134997E+02   -0.49731E-04   -0.55530E-04  2267   0.124E-01    0.322E-02
RMM:   3    -0.755747066338E+02    0.68659E-05   -0.10680E-04  1860   0.539E-02    0.206E-02
RMM:   4    -0.755746968805E+02    0.97533E-05   -0.19784E-05  1311   0.290E-02
  23 F= -.78662128E+02 E0= -.78665214E+02  d E =-.255187E-03
       N       E                     dE             d eps       ncg     rms          rms(c)
DAV:   1    -0.755760658951E+02   -0.13593E-02   -0.11174E-01  2000   0.134E+00    0.114E-01
RMM:   2    -0.755764417987E+02   -0.37590E-03   -0.41620E-03  2426   0.351E-01    0.940E-02
RMM:   3    -0.755763858909E+02    0.55908E-04   -0.90617E-04  2525   0.148E-01    0.615E-02
RMM:   4    -0.755762989774E+02    0.86914E-04   -0.11734E-04  1957   0.574E-02    0.369E-02
RMM:   5    -0.755762791803E+02    0.19797E-04   -0.47833E-05  1667   0.448E-02    0.204E-02
RMM:   6    -0.755762735776E+02    0.56027E-05   -0.44113E-05  1559   0.347E-02
  24 F= -.78662777E+02 E0= -.78665819E+02  d E =-.904486E-03
       N       E                     dE             d eps       ncg     rms          rms(c)
DAV:   1    -0.755780732409E+02   -0.17941E-02   -0.44581E-01  2000   0.268E+00    0.221E-01
RMM:   2    -0.755795312473E+02   -0.14580E-02   -0.16177E-02  2428   0.694E-01    0.181E-01
RMM:   3    -0.755793401826E+02    0.19106E-03   -0.35295E-03  2690   0.292E-01    0.117E-01
RMM:   4    -0.755790470779E+02    0.29310E-03   -0.47520E-04  2415   0.103E-01    0.694E-02
RMM:   5    -0.755789687466E+02    0.78331E-04   -0.18217E-04  2098   0.701E-02    0.406E-02
RMM:   6    -0.755789416073E+02    0.27139E-04   -0.16550E-04  2021   0.585E-02    0.106E-02
RMM:   7    -0.755789429365E+02   -0.13292E-05   -0.15596E-05  1360   0.309E-02
  25 F= -.78663596E+02 E0= -.78666545E+02  d E =-.172289E-02
       N       E                     dE             d eps       ncg     rms          rms(c)
DAV:   1    -0.755789045910E+02    0.37016E-04   -0.17892E+00  2000   0.536E+00    0.435E-01
RMM:   2    -0.755845661872E+02   -0.56616E-02   -0.63168E-02  2414   0.137E+00    0.358E-01
RMM:   3    -0.755839711266E+02    0.59506E-03   -0.14410E-02  2701   0.587E-01    0.236E-01
RMM:   4    -0.755827900821E+02    0.11810E-02   -0.18544E-03  2560   0.202E-01    0.139E-01
RMM:   5    -0.755824832807E+02    0.30680E-03   -0.79482E-04  2367   0.141E-01    0.803E-02
RMM:   6    -0.755823488217E+02    0.13446E-03   -0.62981E-04  2445   0.114E-01    0.221E-02
RMM:   7    -0.755823500040E+02   -0.11823E-05   -0.63242E-05  1740   0.498E-02
  26 F= -.78663315E+02 E0= -.78666063E+02  d E =-.144207E-02
       N       E                     dE             d eps       ncg     rms          rms(c)
DAV:   1    -0.755795257007E+02    0.28231E-02   -0.57995E-01  2000   0.303E+00    0.253E-01
RMM:   2    -0.755815933464E+02   -0.20676E-02   -0.21766E-02  2418   0.790E-01    0.214E-01
RMM:   3    -0.755812109283E+02    0.38242E-03   -0.42695E-03  2680   0.323E-01    0.131E-01
RMM:   4    -0.755808407906E+02    0.37014E-03   -0.63269E-04  2432   0.120E-01    0.817E-02
RMM:   5    -0.755807707071E+02    0.70083E-04   -0.21823E-04  2138   0.770E-02    0.494E-02
RMM:   6    -0.755807332328E+02    0.37474E-04   -0.24609E-04  2164   0.674E-02    0.135E-02
RMM:   7    -0.755807317680E+02    0.14648E-05   -0.20547E-05  1418   0.338E-02
  27 F= -.78663803E+02 E0= -.78666660E+02  d E =-.192987E-02
       N       E                     dE             d eps       ncg     rms          rms(c)
DAV:   1    -0.755815073172E+02   -0.77408E-03   -0.27452E-01  2008   0.206E+00    0.184E-01
RMM:   2    -0.755829023080E+02   -0.13950E-02   -0.12021E-02  2346   0.633E-01    0.243E-01
RMM:   3    -0.755819563529E+02    0.94596E-03   -0.18319E-03  2496   0.248E-01    0.961E-02
RMM:   4    -0.755818796440E+02    0.76709E-04   -0.40700E-04  2151   0.100E-01    0.753E-02
RMM:   5    -0.755818580721E+02    0.21572E-04   -0.96717E-05  1856   0.590E-02    0.451E-02
RMM:   6    -0.755818345799E+02    0.23492E-04   -0.11061E-04  1884   0.564E-02    0.815E-03
RMM:   7    -0.755818357091E+02   -0.11293E-05   -0.15583E-05  1359   0.252E-02
  28 F= -.78663747E+02 E0= -.78666555E+02  d E =0.558981E-04
       N       E                     dE             d eps       ncg     rms          rms(c)
DAV:   1    -0.755814608864E+02    0.37369E-03   -0.74529E-02  2008   0.107E+00    0.986E-02
RMM:   2    -0.755818487507E+02   -0.38786E-03   -0.33236E-03  2353   0.340E-01    0.128E-01
RMM:   3    -0.755815838364E+02    0.26491E-03   -0.54824E-04  2225   0.130E-01    0.513E-02
RMM:   4    -0.755815581991E+02    0.25637E-04   -0.10547E-04  1769   0.563E-02    0.405E-02
RMM:   5    -0.755815525391E+02    0.56600E-05   -0.26337E-05  1437   0.407E-02
  29 F= -.78664066E+02 E0= -.78666883E+02  d E =-.263411E-03
       N       E                     dE             d eps       ncg     rms          rms(c)
DAV:   1    -0.755825296081E+02   -0.97141E-03   -0.11400E-02  2320   0.410E-01    0.860E-02
RMM:   2    -0.755826013247E+02   -0.71717E-04   -0.65377E-04  2533   0.147E-01    0.691E-02
RMM:   3    -0.755825469632E+02    0.54361E-04   -0.24158E-04  2235   0.809E-02    0.524E-02
RMM:   4    -0.755825198481E+02    0.27115E-04   -0.75752E-05  1813   0.458E-02    0.316E-02
RMM:   5    -0.755824955072E+02    0.24341E-04   -0.23267E-05  1469   0.393E-02    0.692E-03
RMM:   6    -0.755824958623E+02   -0.35511E-06   -0.12024E-05  1324   0.203E-02
  30 F= -.78664349E+02 E0= -.78667154E+02  d E =-.282997E-03
