       N       E                     dE             d eps       ncg     rms          rms(c)
DAV:   1     0.232877025063E+04    0.23288E+04   -0.93710E+04  5784   0.161E+03
DAV:   2     0.306544548454E+03   -0.20222E+04   -0.19644E+04  5720   0.464E+02
DAV:   3    -0.607241584181E+02   -0.36727E+03   -0.35530E+03  6568   0.204E+02
DAV:   4    -0.962373880958E+02   -0.35513E+02   -0.34500E+02  7104   0.571E+01
DAV:   5    -0.993627835943E+02   -0.31254E+01   -0.31024E+01  8864   0.123E+01    0.102E+02
RMM:   6    -0.102983593342E+03   -0.36208E+01   -0.25906E+01  6392   0.802E+00    0.473E+01
RMM:   7    -0.165779455518E+03   -0.62796E+02   -0.63982E+01  6896   0.117E+01    0.566E+01
RMM:   8    -0.999490962440E+02    0.65830E+02   -0.12449E+01  6634   0.852E+00    0.212E+01
RMM:   9    -0.912976466455E+02    0.86514E+01   -0.12687E+01  6920   0.508E+00    0.875E+00
RMM:  10    -0.902457746160E+02    0.10519E+01   -0.31661E+00  7889   0.270E+00    0.111E+01
RMM:  11    -0.902832576864E+02   -0.37483E-01   -0.18087E+00  8360   0.204E+00    0.720E+00
RMM:  12    -0.897771834239E+02    0.50607E+00   -0.77453E-01  8091   0.147E+00    0.402E+00
RMM:  13    -0.897657347966E+02    0.11449E-01   -0.36808E-01  8700   0.958E-01    0.351E+00
RMM:  14    -0.896777387429E+02    0.87996E-01   -0.15582E-01  9113   0.634E-01    0.115E+00
RMM:  15    -0.896976483111E+02   -0.19910E-01   -0.65041E-02  9355   0.447E-01    0.155E+00
RMM:  16    -0.896937982092E+02    0.38501E-02   -0.58119E-02  9459   0.301E-01    0.603E-01
RMM:  17    -0.896951508877E+02   -0.13527E-02   -0.30240E-02  9533   0.234E-01    0.623E-01
RMM:  18    -0.896932862770E+02    0.18646E-02   -0.14462E-02  9506   0.156E-01    0.150E-01
RMM:  19    -0.896953776439E+02   -0.20914E-02   -0.96871E-03  9508   0.133E-01    0.333E-01
RMM:  20    -0.896956693310E+02   -0.29169E-03   -0.75081E-03  9371   0.102E-01    0.601E-02
RMM:  21    -0.896964838396E+02   -0.81451E-03   -0.43600E-03  9121   0.765E-02    0.717E-02
RMM:  22    -0.896970890795E+02   -0.60524E-03   -0.29306E-03  8452   0.645E-02    0.103E-01
RMM:  23    -0.896974160843E+02   -0.32700E-03   -0.19761E-03  7225   0.493E-02    0.252E-02
RMM:  24    -0.896977061675E+02   -0.29008E-03   -0.13910E-03  6336   0.390E-02    0.244E-02
RMM:  25    -0.896978825498E+02   -0.17638E-03   -0.97743E-04  5433   0.311E-02    0.173E-02
RMM:  26    -0.896980139381E+02   -0.13139E-03   -0.64217E-04  5097   0.265E-02    0.188E-02
RMM:  27    -0.896981063055E+02   -0.92367E-04   -0.46811E-04  4789   0.220E-02    0.851E-03
RMM:  28    -0.896981408527E+02   -0.34547E-04   -0.34274E-04  4585   0.179E-02    0.102E-02
RMM:  29    -0.896981680917E+02   -0.27239E-04   -0.22962E-04  4359   0.147E-02    0.734E-03
RMM:  30    -0.896981861099E+02   -0.18018E-04   -0.16802E-04  4050   0.124E-02    0.894E-03
RMM:  31    -0.896981971745E+02   -0.11065E-04   -0.12126E-04  3516   0.105E-02    0.535E-03
RMM:  32    -0.896982049830E+02   -0.78085E-05   -0.88596E-05  3276   0.911E-03
   1 F= -.92794436E+02 E0= -.92774765E+02  d E =-.927944E+02
       N       E                     dE             d eps       ncg     rms          rms(c)
DAV:   1     0.171993556547E+03    0.26169E+03   -0.34915E+03  7784   0.150E+02    0.165E+02
RMM:   2     0.123977350927E+03   -0.48016E+02   -0.55027E+02  7794   0.532E+01    0.133E+02
RMM:   3    -0.373029462152E+02   -0.16128E+03   -0.22432E+02  6522   0.299E+01    0.111E+02
RMM:   4     0.114716814830E+03    0.15202E+03   -0.78169E+01  6814   0.190E+01    0.437E+01
RMM:   5     0.118248613488E+03    0.35318E+01   -0.24977E+01  7455   0.981E+00    0.267E+01
RMM:   6     0.116462714544E+03   -0.17859E+01   -0.13005E+01  9123   0.570E+00    0.362E+01
RMM:   7     0.117323480352E+03    0.86077E+00   -0.63790E+00  7602   0.454E+00    0.207E+01
RMM:   8     0.117659002629E+03    0.33552E+00   -0.44762E+00  8716   0.332E+00    0.159E+01
RMM:   9     0.117296012642E+03   -0.36299E+00   -0.31253E+00  9522   0.242E+00    0.159E+01
RMM:  10     0.117094330470E+03   -0.20168E+00   -0.27113E+00  9342   0.193E+00    0.150E+01
RMM:  11     0.117188707483E+03    0.94377E-01   -0.18917E+00  8897   0.172E+00    0.127E+01
RMM:  12     0.117540105976E+03    0.35140E+00   -0.19594E+00  8496   0.197E+00    0.574E+00
RMM:  13     0.117523453303E+03   -0.16653E-01   -0.13717E+00  8811   0.153E+00    0.262E+00
RMM:  14     0.117465275685E+03   -0.58178E-01   -0.67041E-01  8441   0.107E+00    0.163E+00
RMM:  15     0.117425422462E+03   -0.39853E-01   -0.60849E-01  8775   0.896E-01    0.781E-01
RMM:  16     0.117394242329E+03   -0.31180E-01   -0.31893E-01  9404   0.686E-01    0.807E-01
RMM:  17     0.117367687872E+03   -0.26554E-01   -0.24670E-01  8249   0.607E-01    0.638E-01
RMM:  18     0.117351499762E+03   -0.16188E-01   -0.19587E-01  8095   0.507E-01    0.804E-01
RMM:  19     0.117337087511E+03   -0.14412E-01   -0.15052E-01  8523   0.415E-01    0.792E-01
RMM:  20     0.117326451802E+03   -0.10636E-01   -0.12020E-01  7825   0.360E-01    0.670E-01
RMM:  21     0.117317797839E+03   -0.86540E-02   -0.96923E-02  7602   0.318E-01    0.629E-01
RMM:  22     0.117312115984E+03   -0.56819E-02   -0.78130E-02  7558   0.302E-01    0.496E-01
RMM:  23     0.117307045219E+03   -0.50708E-02   -0.63813E-02  7229   0.257E-01    0.518E-01
RMM:  24     0.117303210049E+03   -0.38352E-02   -0.50091E-02  6886   0.225E-01    0.420E-01
RMM:  25     0.117299734297E+03   -0.34758E-02   -0.41837E-02  6613   0.198E-01    0.295E-01
RMM:  26     0.117296427203E+03   -0.33071E-02   -0.36106E-02  6740   0.186E-01    0.259E-01
RMM:  27     0.117293711363E+03   -0.27158E-02   -0.29228E-02  6120   0.156E-01    0.208E-01
RMM:  28     0.117291571800E+03   -0.21396E-02   -0.22692E-02  5812   0.133E-01    0.183E-01
RMM:  29     0.117289770899E+03   -0.18009E-02   -0.19156E-02  5356   0.114E-01    0.193E-01
RMM:  30     0.117288379672E+03   -0.13912E-02   -0.15517E-02  5304   0.102E-01    0.179E-01
RMM:  31     0.117287143302E+03   -0.12364E-02   -0.13244E-02  5319   0.924E-02    0.203E-01
RMM:  32     0.117285988118E+03   -0.11552E-02   -0.11073E-02  5350   0.871E-02    0.298E-01
RMM:  33     0.117285150546E+03   -0.83757E-03   -0.94449E-03  4961   0.747E-02    0.280E-01
RMM:  34     0.117284357803E+03   -0.79274E-03   -0.80190E-03  3960   0.658E-02    0.309E-01
RMM:  35     0.117283769144E+03   -0.58866E-03   -0.67649E-03  4307   0.621E-02    0.283E-01
RMM:  36     0.117283375773E+03   -0.39337E-03   -0.58474E-03  5358   0.653E-02    0.193E-01
RMM:  37     0.117282975605E+03   -0.40017E-03   -0.47406E-03  4953   0.550E-02    0.158E-01
RMM:  38     0.117282595235E+03   -0.38037E-03   -0.41373E-03  3622   0.456E-02    0.158E-01
RMM:  39     0.117282284366E+03   -0.31087E-03   -0.34669E-03  4075   0.422E-02    0.151E-01
RMM:  40     0.117282037331E+03   -0.24703E-03   -0.29716E-03  4508   0.403E-02    0.132E-01
RMM:  41     0.117281852555E+03   -0.18478E-03   -0.24765E-03  5010   0.420E-02    0.761E-02
RMM:  42     0.117281660425E+03   -0.19213E-03   -0.21009E-03  3883   0.337E-02    0.665E-02
RMM:  43     0.117281507475E+03   -0.15295E-03   -0.17431E-03  4047   0.315E-02    0.470E-02
RMM:  44     0.117281377828E+03   -0.12965E-03   -0.14791E-03  3988   0.295E-02    0.242E-02
RMM:  45     0.117281266859E+03   -0.11097E-03   -0.12152E-03  3375   0.253E-02    0.192E-02
RMM:  46     0.117281173463E+03   -0.93395E-04   -0.10235E-03  2974   0.228E-02    0.214E-02
RMM:  47     0.117281097095E+03   -0.76369E-04   -0.84128E-04  2729   0.209E-02    0.258E-02
RMM:  48     0.117281036368E+03   -0.60727E-04   -0.69511E-04  2971   0.200E-02    0.231E-02
RMM:  49     0.117280986874E+03   -0.49494E-04   -0.56288E-04  2562   0.180E-02    0.272E-02
RMM:  50     0.117280947540E+03   -0.39334E-04   -0.45858E-04  2446   0.167E-02    0.304E-02
RMM:  51     0.117280917595E+03   -0.29945E-04   -0.36294E-04  2567   0.156E-02    0.318E-02
RMM:  52     0.117280895374E+03   -0.22222E-04   -0.28731E-04  2750   0.149E-02    0.306E-02
RMM:  53     0.117280878997E+03   -0.16377E-04   -0.22087E-04  2386   0.137E-02    0.328E-02
RMM:  54     0.117280866071E+03   -0.12925E-04   -0.17490E-04  2276   0.127E-02    0.352E-02
RMM:  55     0.117280857339E+03   -0.87322E-05   -0.13246E-04  2350   0.121E-02    0.370E-02
RMM:  56     0.117280858418E+03    0.10790E-05   -0.62392E-05  2186   0.114E-02
   2 F= 0.11410373E+03 E0= 0.11410542E+03  d E =0.206898E+03
       N       E                     dE             d eps       ncg     rms          rms(c)
DAV:   1    -0.646466566376E+02   -0.18193E+03   -0.31463E+03  6880   0.117E+02    0.174E+02
RMM:   2    -0.726129015026E+02   -0.79662E+01   -0.36657E+02  6862   0.357E+01    0.110E+02
RMM:   3    -0.169273877214E+03   -0.96661E+02   -0.25372E+02  6899   0.256E+01    0.439E+01
RMM:   4    -0.968208682625E+02    0.72453E+02   -0.11761E+02  6923   0.165E+01    0.223E+01
RMM:   5    -0.933216644548E+02    0.34992E+01   -0.39336E+01  7301   0.912E+00    0.223E+01
RMM:   6    -0.935287774549E+02   -0.20711E+00   -0.25979E+01  8311   0.602E+00    0.157E+01
RMM:   7    -0.898609187504E+02    0.36679E+01   -0.16436E+01  7107   0.523E+00    0.619E+00
RMM:   8    -0.902292602626E+02   -0.36834E+00   -0.63794E+00  7570   0.324E+00    0.465E+00
RMM:   9    -0.905301808576E+02   -0.30092E+00   -0.37311E+00  8700   0.195E+00    0.435E+00
RMM:  10    -0.909618711290E+02   -0.43169E+00   -0.22881E+00  7997   0.176E+00    0.767E+00
RMM:  11    -0.908185508603E+02    0.14332E+00   -0.32098E+00  7743   0.154E+00    0.291E+00
RMM:  12    -0.907409212824E+02    0.77630E-01   -0.13169E+00  7688   0.106E+00    0.229E+00
RMM:  13    -0.907555686678E+02   -0.14647E-01   -0.10368E+00  8114   0.751E-01    0.934E-01
RMM:  14    -0.908643050720E+02   -0.10874E+00   -0.93926E-01  8716   0.618E-01    0.126E+00
RMM:  15    -0.909457335449E+02   -0.81428E-01   -0.93665E-01  8122   0.496E-01    0.237E-01
RMM:  16    -0.910398258055E+02   -0.94092E-01   -0.87136E-01  8517   0.426E-01    0.181E-01
RMM:  17    -0.911241012352E+02   -0.84275E-01   -0.80239E-01  8737   0.339E-01    0.149E-01
RMM:  18    -0.911948859780E+02   -0.70785E-01   -0.67526E-01  8212   0.286E-01    0.138E-01
RMM:  19    -0.912542280174E+02   -0.59342E-01   -0.55974E-01  7975   0.260E-01    0.267E-01
RMM:  20    -0.913005119436E+02   -0.46284E-01   -0.43874E-01  7303   0.208E-01    0.272E-01
RMM:  21    -0.913369695539E+02   -0.36458E-01   -0.34165E-01  7121   0.185E-01    0.213E-01
RMM:  22    -0.913659056267E+02   -0.28936E-01   -0.24841E-01  7350   0.165E-01    0.331E-01
RMM:  23    -0.913869156860E+02   -0.21010E-01   -0.19232E-01  6362   0.137E-01    0.329E-01
RMM:  24    -0.914026573374E+02   -0.15742E-01   -0.14328E-01  6294   0.118E-01    0.341E-01
RMM:  25    -0.914142730706E+02   -0.11616E-01   -0.10770E-01  5899   0.990E-02    0.382E-01
RMM:  26    -0.914231225842E+02   -0.88495E-02   -0.81508E-02  6122   0.961E-02    0.447E-01
RMM:  27    -0.914303094960E+02   -0.71869E-02   -0.61619E-02  5900   0.893E-02    0.436E-01
RMM:  28    -0.914372909057E+02   -0.69814E-02   -0.49341E-02  6680   0.901E-02    0.471E-01
RMM:  29    -0.914416914505E+02   -0.44005E-02   -0.37064E-02  5590   0.666E-02    0.487E-01
RMM:  30    -0.914454069923E+02   -0.37155E-02   -0.29247E-02  5395   0.559E-02    0.505E-01
RMM:  31    -0.914483542640E+02   -0.29473E-02   -0.23756E-02  5072   0.476E-02    0.520E-01
RMM:  32    -0.914504417613E+02   -0.20875E-02   -0.19206E-02  4632   0.394E-02    0.529E-01
RMM:  33    -0.914517286195E+02   -0.12869E-02   -0.14382E-02  5058   0.372E-02    0.527E-01
RMM:  34    -0.914527085466E+02   -0.97993E-03   -0.12205E-02  4756   0.309E-02    0.524E-01
RMM:  35    -0.914536639185E+02   -0.95537E-03   -0.87187E-03  4102   0.263E-02    0.530E-01
RMM:  36    -0.914544582861E+02   -0.79437E-03   -0.72344E-03  3089   0.226E-02    0.534E-01
RMM:  37    -0.914549786647E+02   -0.52038E-03   -0.52049E-03  3281   0.205E-02    0.535E-01
RMM:  38    -0.914538313394E+02    0.11473E-02   -0.42327E-03  5878   0.448E-02    0.496E-01
RMM:  39    -0.914513982121E+02    0.24331E-02   -0.38512E-03  7356   0.642E-02    0.431E-01
RMM:  40    -0.914511988255E+02    0.19939E-03   -0.29609E-03  5820   0.428E-02    0.433E-01
RMM:  41    -0.914507483055E+02    0.45052E-03   -0.20129E-03  5423   0.342E-02    0.423E-01
RMM:  42    -0.914501076080E+02    0.64070E-03   -0.17759E-03  5488   0.304E-02    0.408E-01
RMM:  43    -0.914504590756E+02   -0.35147E-03   -0.12436E-03  5031   0.210E-02    0.413E-01
RMM:  44    -0.914490585637E+02    0.14005E-02   -0.13095E-03  6079   0.402E-02    0.381E-01
RMM:  45    -0.914488366523E+02    0.22191E-03   -0.99840E-04  5305   0.246E-02    0.372E-01
RMM:  46    -0.914492406419E+02   -0.40399E-03   -0.71973E-04  4961   0.166E-02    0.381E-01
RMM:  47    -0.914492013422E+02    0.39300E-04   -0.61204E-04  5012   0.152E-02    0.369E-01
RMM:  48    -0.914480467521E+02    0.11546E-02   -0.73985E-04  5994   0.343E-02    0.332E-01
RMM:  49    -0.914469822605E+02    0.10645E-02   -0.95591E-04  6477   0.396E-02    0.266E-01
RMM:  50    -0.914474544599E+02   -0.47220E-03   -0.44410E-04  5393   0.279E-02    0.273E-01
RMM:  51    -0.914474053138E+02    0.49146E-04   -0.30763E-04  4860   0.144E-02    0.263E-01
RMM:  52    -0.914467454442E+02    0.65987E-03   -0.40765E-04  5512   0.282E-02    0.166E-01
RMM:  53    -0.914461746539E+02    0.57079E-03   -0.79819E-04  6782   0.459E-02    0.108E-01
RMM:  54    -0.914461595644E+02    0.15089E-04   -0.41732E-04  5363   0.289E-02    0.101E-01
RMM:  55    -0.914461665111E+02   -0.69467E-05   -0.16878E-04  4979   0.191E-02    0.980E-02
RMM:  56    -0.914461683561E+02   -0.18450E-05   -0.17684E-04  4667   0.151E-02    0.952E-02
RMM:  57    -0.914461792944E+02   -0.10938E-04   -0.97852E-05  4671   0.119E-02    0.880E-02
RMM:  58    -0.914461952177E+02   -0.15923E-04   -0.79215E-05  3967   0.817E-03    0.871E-02
RMM:  59    -0.914462567918E+02   -0.61574E-04   -0.68370E-05  4903   0.108E-02    0.964E-02
RMM:  60    -0.914463422404E+02   -0.85449E-04   -0.70103E-05  4824   0.104E-02    0.107E-01
RMM:  61    -0.914462671865E+02    0.75054E-04   -0.63125E-05  5291   0.128E-02    0.984E-02
RMM:  62    -0.914463079285E+02   -0.40742E-04   -0.41646E-05  3668   0.793E-03    0.104E-01
RMM:  63    -0.914462987427E+02    0.91858E-05   -0.32578E-05  2657   0.656E-03
   3 F= -.94544901E+02 E0= -.94527181E+02  d E =-.175047E+01
       N       E                     dE             d eps       ncg     rms          rms(c)
DAV:   1    -0.922184929668E+02   -0.77219E+00   -0.59915E+00  5760   0.460E+00    0.887E+00
RMM:   2    -0.951454758457E+02   -0.29270E+01   -0.29465E+00  6339   0.207E+00    0.881E+00
RMM:   3    -0.927700098774E+02    0.23755E+01   -0.11193E+00  5982   0.174E+00    0.796E+00
RMM:   4    -0.924136585475E+02    0.35635E+00   -0.61375E-01  6595   0.125E+00    0.312E+00
RMM:   5    -0.921614683371E+02    0.25219E+00   -0.58587E-02  6673   0.510E-01    0.855E-01
RMM:   6    -0.921452461342E+02    0.16222E-01   -0.56113E-02  6649   0.326E-01    0.648E-01
RMM:   7    -0.921434472036E+02    0.17989E-02   -0.89139E-03  7375   0.171E-01    0.527E-01
RMM:   8    -0.921597422041E+02   -0.16295E-01   -0.88561E-03  6876   0.148E-01    0.125E+00
RMM:   9    -0.921478367401E+02    0.11905E-01   -0.19489E-03  6611   0.838E-02    0.704E-01
RMM:  10    -0.921458458110E+02    0.19909E-02   -0.62961E-03  7003   0.107E-01    0.638E-01
RMM:  11    -0.921424821889E+02    0.33636E-02   -0.20211E-03  6256   0.651E-02    0.529E-02
RMM:  12    -0.921430590006E+02   -0.57681E-03   -0.49924E-04  5549   0.430E-02    0.963E-02
RMM:  13    -0.921430690138E+02   -0.10013E-04   -0.40283E-04  5389   0.258E-02    0.208E-02
RMM:  14    -0.921431208127E+02   -0.51799E-04   -0.11084E-04  5069   0.166E-02    0.139E-02
RMM:  15    -0.921431422517E+02   -0.21439E-04   -0.73496E-05  4657   0.112E-02    0.206E-02
RMM:  16    -0.921431469899E+02   -0.47382E-05   -0.44718E-05  3969   0.846E-03
   4 F= -.95243392E+02 E0= -.95228088E+02  d E =-.244896E+01
       N       E                     dE             d eps       ncg     rms          rms(c)
DAV:   1    -0.932055733629E+02   -0.10624E+01   -0.32505E+01  5776   0.989E+00    0.175E+01
RMM:   2    -0.982465979353E+02   -0.50410E+01   -0.71680E+00  6431   0.343E+00    0.127E+01
RMM:   3    -0.957430731528E+02    0.25035E+01   -0.30168E+00  6226   0.291E+00    0.129E+01
RMM:   4    -0.940272301676E+02    0.17158E+01   -0.15772E+00  6449   0.219E+00    0.652E+00
RMM:   5    -0.930329341318E+02    0.99430E+00   -0.48875E-01  6638   0.130E+00    0.264E+00
RMM:   6    -0.929570049614E+02    0.75929E-01   -0.10831E-01  6851   0.626E-01    0.174E+00
RMM:   7    -0.930056507368E+02   -0.48646E-01   -0.22205E-01  7436   0.509E-01    0.275E+00
RMM:   8    -0.929416810030E+02    0.63970E-01   -0.21465E-02  7872   0.285E-01    0.157E+00
RMM:   9    -0.929302769703E+02    0.11404E-01   -0.10397E-02  7594   0.146E-01    0.924E-01
RMM:  10    -0.929429779178E+02   -0.12701E-01   -0.21441E-02  7457   0.187E-01    0.134E+00
RMM:  11    -0.929224854575E+02    0.20492E-01   -0.83463E-03  7521   0.130E-01    0.213E-01
RMM:  12    -0.929242197538E+02   -0.17343E-02   -0.20441E-03  6581   0.780E-02    0.189E-01
RMM:  13    -0.929244987153E+02   -0.27896E-03   -0.99739E-04  6065   0.423E-02    0.186E-01
RMM:  14    -0.929242957152E+02    0.20300E-03   -0.57161E-04  5890   0.326E-02    0.594E-02
RMM:  15    -0.929244712316E+02   -0.17552E-03   -0.30801E-04  5526   0.254E-02    0.563E-02
RMM:  16    -0.929245209713E+02   -0.49740E-04   -0.12419E-04  5114   0.168E-02    0.542E-02
RMM:  17    -0.929245880833E+02   -0.67112E-04   -0.93231E-05  4704   0.125E-02    0.546E-02
RMM:  18    -0.929246178759E+02   -0.29793E-04   -0.56710E-05  4075   0.102E-02    0.483E-02
RMM:  19    -0.929246346990E+02   -0.16823E-04   -0.35653E-05  4072   0.871E-03    0.347E-02
RMM:  20    -0.929246549131E+02   -0.20214E-04   -0.28617E-05  3974   0.789E-03    0.208E-02
RMM:  21    -0.929246586978E+02   -0.37847E-05   -0.16944E-05  3014   0.641E-03
   5 F= -.96028917E+02 E0= -.96016622E+02  d E =-.323448E+01
       N       E                     dE             d eps       ncg     rms          rms(c)
DAV:   1    -0.585101155874E+02    0.34415E+02   -0.11828E+03  5648   0.586E+01    0.296E+01
RMM:   2    -0.690118854804E+02   -0.10502E+02   -0.13129E+02  6587   0.189E+01    0.226E+01
RMM:   3    -0.733625529859E+02   -0.43507E+01   -0.28568E+01  6751   0.944E+00    0.189E+01
RMM:   4    -0.715626638532E+02    0.17999E+01   -0.79264E+00  7023   0.516E+00    0.126E+01
RMM:   5    -0.709130283887E+02    0.64964E+00   -0.49060E+00  7408   0.375E+00    0.654E+00
RMM:   6    -0.702750875004E+02    0.63794E+00   -0.10247E+00  7832   0.210E+00    0.381E+00
RMM:   7    -0.700258444996E+02    0.24924E+00   -0.69001E-01  7471   0.140E+00    0.307E+00
RMM:   8    -0.698463901247E+02    0.17945E+00   -0.55701E-01  8562   0.103E+00    0.162E+00
RMM:   9    -0.698631729176E+02   -0.16783E-01   -0.30251E-01  8225   0.793E-01    0.517E-01
RMM:  10    -0.698849275790E+02   -0.21755E-01   -0.15062E-01  8482   0.541E-01    0.546E-01
RMM:  11    -0.698853266668E+02   -0.39909E-03   -0.12619E-01  8577   0.417E-01    0.335E-01
RMM:  12    -0.698924111895E+02   -0.70845E-02   -0.65952E-02  8988   0.310E-01    0.323E-01
RMM:  13    -0.698974625316E+02   -0.50513E-02   -0.47211E-02  8432   0.241E-01    0.284E-01
RMM:  14    -0.699017453852E+02   -0.42829E-02   -0.31465E-02  8490   0.232E-01    0.261E-01
RMM:  15    -0.699033607887E+02   -0.16154E-02   -0.20394E-02  7955   0.173E-01    0.936E-02
RMM:  16    -0.699047617665E+02   -0.14010E-02   -0.13453E-02  8074   0.127E-01    0.827E-02
RMM:  17    -0.699057484541E+02   -0.98669E-03   -0.94460E-03  7270   0.999E-02    0.897E-02
RMM:  18    -0.699064531138E+02   -0.70466E-03   -0.66972E-03  7047   0.820E-02    0.102E-01
RMM:  19    -0.699073220961E+02   -0.86898E-03   -0.53046E-03  7231   0.842E-02    0.193E-01
RMM:  20    -0.699079439318E+02   -0.62184E-03   -0.39626E-03  6959   0.685E-02    0.271E-01
RMM:  21    -0.699081628796E+02   -0.21895E-03   -0.28285E-03  6432   0.524E-02    0.279E-01
RMM:  22    -0.699088286902E+02   -0.66581E-03   -0.22538E-03  6288   0.492E-02    0.380E-01
RMM:  23    -0.699093518505E+02   -0.52316E-03   -0.17489E-03  5796   0.396E-02    0.428E-01
RMM:  24    -0.699098218523E+02   -0.47000E-03   -0.13632E-03  5744   0.367E-02    0.489E-01
RMM:  25    -0.699101210414E+02   -0.29919E-03   -0.10392E-03  5412   0.299E-02    0.534E-01
RMM:  26    -0.699098360814E+02    0.28496E-03   -0.66470E-04  5208   0.249E-02    0.467E-01
RMM:  27    -0.699100644689E+02   -0.22839E-03   -0.53352E-04  4875   0.210E-02    0.518E-01
RMM:  28    -0.699097766769E+02    0.28779E-03   -0.38814E-04  5257   0.224E-02    0.442E-01
RMM:  29    -0.699093823601E+02    0.39432E-03   -0.63824E-04  5658   0.365E-02    0.297E-01
RMM:  30    -0.699092117498E+02    0.17061E-03   -0.58063E-04  5446   0.334E-02    0.170E-01
RMM:  31    -0.699091964542E+02    0.15296E-04   -0.27497E-04  5023   0.173E-02    0.132E-01
RMM:  32    -0.699092158657E+02   -0.19411E-04   -0.13281E-04  4352   0.976E-03    0.141E-01
RMM:  33    -0.699092205790E+02   -0.47133E-05   -0.13037E-04  4886   0.134E-02    0.916E-02
RMM:  34    -0.699092261665E+02   -0.55874E-05   -0.24988E-04  5358   0.262E-02    0.372E-02
RMM:  35    -0.699092395855E+02   -0.13419E-04   -0.95856E-05  4598   0.119E-02    0.459E-02
RMM:  36    -0.699092535008E+02   -0.13915E-04   -0.69887E-05  3905   0.846E-03    0.574E-02
RMM:  37    -0.699092483350E+02    0.51658E-05   -0.50177E-05  3305   0.793E-03
   6 F= -.73042256E+02 E0= -.73038635E+02  d E =0.197522E+02
       N       E                     dE             d eps       ncg     rms          rms(c)
DAV:   1    -0.892471549957E+02   -0.19338E+02   -0.10470E+03  5552   0.513E+01    0.404E+01
RMM:   2    -0.970606632968E+02   -0.78135E+01   -0.76577E+01  6296   0.155E+01    0.185E+01
RMM:   3    -0.112189889683E+03   -0.15129E+02   -0.52688E+01  6703   0.110E+01    0.291E+01
RMM:   4    -0.948108406380E+02    0.17379E+02   -0.67449E+00  6522   0.551E+00    0.169E+01
RMM:   5    -0.940537241410E+02    0.75712E+00   -0.35047E+00  7034   0.290E+00    0.105E+01
RMM:   6    -0.930225319463E+02    0.10312E+01   -0.23452E+00  6979   0.250E+00    0.498E+00
RMM:   7    -0.931860198151E+02   -0.16349E+00   -0.59869E-01  7880   0.134E+00    0.575E+00
RMM:   8    -0.936502134707E+02   -0.46419E+00   -0.81425E-01  6999   0.114E+00    0.716E+00
RMM:   9    -0.931799777158E+02    0.47024E+00   -0.38311E-01  7264   0.917E-01    0.448E+00
RMM:  10    -0.929648599489E+02    0.21512E+00   -0.10891E-01  7536   0.489E-01    0.177E+00
RMM:  11    -0.929679911484E+02   -0.31312E-02   -0.45328E-02  8202   0.316E-01    0.155E+00
RMM:  12    -0.929451290094E+02    0.22862E-01   -0.32143E-02  8356   0.236E-01    0.323E-01
RMM:  13    -0.929488381662E+02   -0.37092E-02   -0.12133E-02  8505   0.159E-01    0.230E-01
RMM:  14    -0.929501728165E+02   -0.13347E-02   -0.64258E-03  7752   0.100E-01    0.215E-01
RMM:  15    -0.929504206618E+02   -0.24785E-03   -0.49241E-03  7345   0.900E-02    0.873E-02
RMM:  16    -0.929507131920E+02   -0.29253E-03   -0.23764E-03  6826   0.636E-02    0.344E-02
RMM:  17    -0.929511436521E+02   -0.43046E-03   -0.16029E-03  6592   0.497E-02    0.102E-01
RMM:  18    -0.929513041900E+02   -0.16054E-03   -0.85951E-04  6252   0.384E-02    0.409E-02
RMM:  19    -0.929515347927E+02   -0.23060E-03   -0.56956E-04  5900   0.299E-02    0.377E-02
RMM:  20    -0.929516719763E+02   -0.13718E-03   -0.35562E-04  5680   0.242E-02    0.117E-02
RMM:  21    -0.929517247191E+02   -0.52743E-04   -0.23354E-04  4927   0.188E-02    0.846E-03
RMM:  22    -0.929517554268E+02   -0.30708E-04   -0.15559E-04  4205   0.149E-02    0.671E-03
RMM:  23    -0.929517763708E+02   -0.20944E-04   -0.10658E-04  4010   0.126E-02    0.826E-03
RMM:  24    -0.929517966799E+02   -0.20309E-04   -0.73464E-05  3938   0.109E-02    0.558E-03
RMM:  25    -0.929518087860E+02   -0.12106E-04   -0.53819E-05  3687   0.940E-03    0.411E-03
RMM:  26    -0.929518115712E+02   -0.27852E-05   -0.34616E-05  3175   0.779E-03
   7 F= -.96056748E+02 E0= -.96044885E+02  d E =-.326231E+01
       N       E                     dE             d eps       ncg     rms          rms(c)
DAV:   1    -0.344439144688E+02    0.58508E+02   -0.18133E+03  5688   0.670E+01    0.252E+01
RMM:   2    -0.443280655907E+02   -0.98842E+01   -0.14837E+02  6856   0.203E+01    0.220E+01
RMM:   3    -0.505064268072E+02   -0.61784E+01   -0.50629E+01  6752   0.107E+01    0.202E+01
RMM:   4    -0.454492166195E+02    0.50572E+01   -0.15853E+01  7135   0.528E+00    0.153E+01
RMM:   5    -0.495095442997E+02   -0.40603E+01   -0.60489E+00  7267   0.355E+00    0.183E+01
RMM:   6    -0.463772219784E+02    0.31323E+01   -0.33024E+00  7676   0.254E+00    0.129E+01
RMM:   7    -0.495018613338E+02   -0.31246E+01   -0.74738E+00  7527   0.275E+00    0.173E+01
RMM:   8    -0.454625960232E+02    0.40393E+01   -0.93851E-01  7895   0.157E+00    0.940E+00
RMM:   9    -0.451385702583E+02    0.32403E+00   -0.44321E-01  7839   0.981E-01    0.526E+00
RMM:  10    -0.449979073222E+02    0.14066E+00   -0.57707E-01  8268   0.963E-01    0.890E-01
RMM:  11    -0.450540372177E+02   -0.56130E-01   -0.17497E-01  8632   0.578E-01    0.187E+00
RMM:  12    -0.450473785824E+02    0.66586E-02   -0.78266E-02  9223   0.399E-01    0.144E+00
RMM:  13    -0.450784592784E+02   -0.31081E-01   -0.62083E-02  8612   0.298E-01    0.232E+00
RMM:  14    -0.451033448999E+02   -0.24886E-01   -0.43115E-02  8556   0.259E-01    0.297E+00
RMM:  15    -0.450373011619E+02    0.66044E-01   -0.58106E-02  8176   0.365E-01    0.541E-01
RMM:  16    -0.450506456733E+02   -0.13345E-01   -0.15260E-02  8434   0.213E-01    0.346E-01
RMM:  17    -0.450516925509E+02   -0.10469E-02   -0.13764E-02  8063   0.148E-01    0.149E-01
RMM:  18    -0.450537100714E+02   -0.20175E-02   -0.81788E-03  7893   0.114E-01    0.397E-01
RMM:  19    -0.450541127542E+02   -0.40268E-03   -0.49732E-03  7217   0.896E-02    0.249E-01
RMM:  20    -0.450547584096E+02   -0.64566E-03   -0.35456E-03  6800   0.735E-02    0.855E-02
RMM:  21    -0.450560365448E+02   -0.12781E-02   -0.26579E-03  6894   0.714E-02    0.339E-01
RMM:  22    -0.450555625358E+02    0.47401E-03   -0.18097E-03  6442   0.567E-02    0.478E-02
RMM:  23    -0.450558853173E+02   -0.32278E-03   -0.14567E-03  5898   0.399E-02    0.326E-02
RMM:  24    -0.450560566819E+02   -0.17136E-03   -0.82815E-04  5280   0.305E-02    0.321E-02
RMM:  25    -0.450561268274E+02   -0.70146E-04   -0.56545E-04  4792   0.233E-02    0.142E-02
RMM:  26    -0.450561817495E+02   -0.54922E-04   -0.38305E-04  4358   0.191E-02    0.237E-02
RMM:  27    -0.450562153232E+02   -0.33574E-04   -0.27849E-04  4267   0.161E-02    0.261E-02
RMM:  28    -0.450562347093E+02   -0.19386E-04   -0.20452E-04  3988   0.136E-02    0.938E-03
RMM:  29    -0.450562508974E+02   -0.16188E-04   -0.13901E-04  3411   0.112E-02    0.793E-03
RMM:  30    -0.450562628765E+02   -0.11979E-04   -0.10509E-04  3258   0.933E-03    0.372E-03
RMM:  31    -0.450562723154E+02   -0.94389E-05   -0.74601E-05  3051   0.811E-03
   8 F= -.48198737E+02 E0= -.48190540E+02  d E =0.478580E+02
       N       E                     dE             d eps       ncg     rms          rms(c)
DAV:   1    -0.878183144462E+02   -0.42762E+02   -0.16063E+03  5824   0.714E+01    0.259E+01
RMM:   2    -0.105491692308E+03   -0.17673E+02   -0.15392E+02  6480   0.190E+01    0.248E+01
RMM:   3    -0.959638272344E+02    0.95279E+01   -0.20106E+01  6586   0.886E+00    0.164E+01
RMM:   4    -0.968580560232E+02   -0.89423E+00   -0.57698E+00  6993   0.447E+00    0.187E+01
RMM:   5    -0.956108707807E+02    0.12472E+01   -0.50359E+00  7005   0.357E+00    0.824E+00
RMM:   6    -0.937725831297E+02    0.18383E+01   -0.18143E+00  6943   0.237E+00    0.529E+00
RMM:   7    -0.945344760094E+02   -0.76189E+00   -0.13568E+00  7515   0.178E+00    0.744E+00
RMM:   8    -0.936833626055E+02    0.85111E+00   -0.27460E-01  7788   0.965E-01    0.402E+00
RMM:   9    -0.940399682259E+02   -0.35661E+00   -0.76767E-01  8124   0.936E-01    0.587E+00
RMM:  10    -0.938071150008E+02    0.23285E+00   -0.88099E-02  7891   0.599E-01    0.473E+00
RMM:  11    -0.935473582254E+02    0.25976E+00   -0.17896E-01  7933   0.488E-01    0.965E-01
RMM:  12    -0.935705960697E+02   -0.23238E-01   -0.36786E-02  8547   0.319E-01    0.852E-01
RMM:  13    -0.935655579303E+02    0.50381E-02   -0.17656E-02  8486   0.185E-01    0.512E-01
RMM:  14    -0.935662987393E+02   -0.74081E-03   -0.12098E-02  7579   0.145E-01    0.506E-01
RMM:  15    -0.935677397600E+02   -0.14410E-02   -0.14216E-02  8184   0.160E-01    0.112E-01
RMM:  16    -0.935684568720E+02   -0.71711E-03   -0.46381E-03  7388   0.914E-02    0.152E-01
RMM:  17    -0.935690977002E+02   -0.64083E-03   -0.27203E-03  6809   0.628E-02    0.206E-01
RMM:  18    -0.935690952496E+02    0.24506E-05   -0.15377E-03  6385   0.504E-02    0.119E-01
RMM:  19    -0.935701581811E+02   -0.10629E-02   -0.17845E-03  6518   0.528E-02    0.910E-02
RMM:  20    -0.935706125716E+02   -0.45439E-03   -0.10353E-03  6046   0.359E-02    0.137E-01
RMM:  21    -0.935706856939E+02   -0.73122E-04   -0.69512E-04  5897   0.315E-02    0.519E-02
RMM:  22    -0.935710167659E+02   -0.33107E-03   -0.51523E-04  5191   0.243E-02    0.378E-02
RMM:  23    -0.935711768872E+02   -0.16012E-03   -0.30998E-04  4885   0.182E-02    0.494E-02
RMM:  24    -0.935712216308E+02   -0.44744E-04   -0.14465E-04  4860   0.164E-02    0.245E-02
RMM:  25    -0.935712595273E+02   -0.37896E-04   -0.13392E-04  4267   0.124E-02    0.111E-02
RMM:  26    -0.935712782486E+02   -0.18721E-04   -0.76313E-05  3480   0.973E-03    0.981E-03
RMM:  27    -0.935712862126E+02   -0.79640E-05   -0.54643E-05  3152   0.832E-03
   9 F= -.96679037E+02 E0= -.96667792E+02  d E =-.622289E+00
       N       E                     dE             d eps       ncg     rms          rms(c)
DAV:   1    -0.936630476238E+02   -0.91769E-01   -0.15763E+00  5928   0.203E+00    0.114E+00
RMM:   2    -0.938843335701E+02   -0.22129E+00   -0.12412E-01  6268   0.558E-01    0.406E+00
RMM:   3    -0.936562480300E+02    0.22809E+00   -0.22869E-02  6268   0.332E-01    0.116E+00
RMM:   4    -0.936658777800E+02   -0.96298E-02   -0.36947E-02  6605   0.234E-01    0.741E-01
RMM:   5    -0.936573044754E+02    0.85733E-02   -0.63445E-03  6566   0.147E-01    0.322E-01
RMM:   6    -0.936566258378E+02    0.67864E-03   -0.17034E-03  6759   0.777E-02    0.123E-01
RMM:   7    -0.936566432690E+02   -0.17431E-04   -0.10992E-03  6285   0.481E-02    0.718E-02
RMM:   8    -0.936567147282E+02   -0.71459E-04   -0.30411E-04  5716   0.286E-02    0.635E-02
RMM:   9    -0.936567671650E+02   -0.52437E-04   -0.11284E-04  5197   0.183E-02    0.347E-02
RMM:  10    -0.936567793654E+02   -0.12200E-04   -0.85574E-05  4919   0.136E-02    0.852E-03
RMM:  11    -0.936568026722E+02   -0.23307E-04   -0.36591E-05  3836   0.954E-03    0.423E-03
RMM:  12    -0.936568304006E+02   -0.27728E-04   -0.25993E-05  3760   0.787E-03    0.280E-03
RMM:  13    -0.936568328923E+02   -0.24917E-05   -0.15551E-05  3170   0.648E-03
  10 F= -.96765509E+02 E0= -.96754467E+02  d E =-.708761E+00
       N       E                     dE             d eps       ncg     rms          rms(c)
DAV:   1    -0.936854757509E+02   -0.28645E-01   -0.11543E+00  5784   0.177E+00    0.944E-01
RMM:   2    -0.938535671754E+02   -0.16809E+00   -0.97730E-02  6255   0.479E-01    0.360E+00
RMM:   3    -0.936789585864E+02    0.17461E+00   -0.17925E-02  6318   0.295E-01    0.955E-01
RMM:   4    -0.936870762040E+02   -0.81176E-02   -0.25163E-02  6674   0.196E-01    0.638E-01
RMM:   5    -0.936812926530E+02    0.57836E-02   -0.46612E-03  6595   0.123E-01    0.244E-01
RMM:   6    -0.936811166380E+02    0.17601E-03   -0.11803E-03  6705   0.657E-02    0.100E-01
RMM:   7    -0.936810918628E+02    0.24775E-04   -0.66319E-04  5921   0.396E-02    0.530E-02
RMM:   8    -0.936811510422E+02   -0.59179E-04   -0.23371E-04  5590   0.253E-02    0.488E-02
RMM:   9    -0.936812019007E+02   -0.50859E-04   -0.85985E-05  5029   0.159E-02    0.264E-02
RMM:  10    -0.936812169041E+02   -0.15003E-04   -0.60887E-05  4714   0.121E-02    0.635E-03
RMM:  11    -0.936812332384E+02   -0.16334E-04   -0.28097E-05  3689   0.849E-03    0.415E-03
RMM:  12    -0.936812613175E+02   -0.28079E-04   -0.23462E-05  3634   0.751E-03    0.249E-03
RMM:  13    -0.936812644302E+02   -0.31127E-05   -0.12578E-05  2992   0.614E-03
  11 F= -.96790721E+02 E0= -.96779844E+02  d E =-.733973E+00
       N       E                     dE             d eps       ncg     rms          rms(c)
DAV:   1    -0.937549191189E+02   -0.73658E-01   -0.18995E+02  5600   0.257E+01    0.166E+01
RMM:   2    -0.987609377580E+02   -0.50060E+01   -0.14671E+01  6527   0.683E+00    0.148E+01
RMM:   3    -0.957835789594E+02    0.29774E+01   -0.45222E+00  6632   0.406E+00    0.109E+01
RMM:   4    -0.952207923127E+02    0.56279E+00   -0.15091E+00  6952   0.247E+00    0.636E+00
RMM:   5    -0.940840636989E+02    0.11367E+01   -0.65187E-01  7016   0.165E+00    0.174E+00
RMM:   6    -0.940826167030E+02    0.14470E-02   -0.16029E-01  8214   0.879E-01    0.193E+00
RMM:   7    -0.940617517055E+02    0.20865E-01   -0.10619E-01  8669   0.517E-01    0.138E+00
RMM:   8    -0.940720394161E+02   -0.10288E-01   -0.35472E-02  8898   0.319E-01    0.151E+00
RMM:   9    -0.940725194597E+02   -0.48004E-03   -0.21067E-02  8037   0.244E-01    0.879E-01
RMM:  10    -0.940690482317E+02    0.34712E-02   -0.18280E-02  8177   0.210E-01    0.858E-01
RMM:  11    -0.940634959642E+02    0.55523E-02   -0.72682E-03  8405   0.156E-01    0.238E-01
RMM:  12    -0.940640660827E+02   -0.57012E-03   -0.42516E-03  8067   0.967E-02    0.141E-01
RMM:  13    -0.940642742393E+02   -0.20816E-03   -0.20138E-03  7413   0.691E-02    0.469E-02
RMM:  14    -0.940646144660E+02   -0.34023E-03   -0.13244E-03  7154   0.539E-02    0.189E-02
RMM:  15    -0.940647681329E+02   -0.15367E-03   -0.81214E-04  6828   0.407E-02    0.307E-02
RMM:  16    -0.940648749651E+02   -0.10683E-03   -0.47126E-04  6306   0.313E-02    0.300E-02
RMM:  17    -0.940649742535E+02   -0.99288E-04   -0.32769E-04  5782   0.248E-02    0.243E-02
RMM:  18    -0.940650236166E+02   -0.49363E-04   -0.19888E-04  5220   0.198E-02    0.862E-03
RMM:  19    -0.940650819286E+02   -0.58312E-04   -0.14575E-04  4916   0.165E-02    0.440E-03
RMM:  20    -0.940650956580E+02   -0.13729E-04   -0.88118E-05  4173   0.131E-02    0.366E-03
RMM:  21    -0.940651074132E+02   -0.11755E-04   -0.58227E-05  3747   0.108E-02    0.410E-03
RMM:  22    -0.940651133423E+02   -0.59291E-05   -0.38605E-05  3593   0.929E-03
  12 F= -.97194720E+02 E0= -.97188124E+02  d E =-.404000E+00
       N       E                     dE             d eps       ncg     rms          rms(c)
DAV:   1    -0.942793119912E+02   -0.21420E+00   -0.33085E+01  5672   0.110E+01    0.699E+00
RMM:   2    -0.974018642313E+02   -0.31226E+01   -0.30326E+00  6430   0.309E+00    0.803E+00
RMM:   3    -0.946528867177E+02    0.27490E+01   -0.99341E-01  6466   0.199E+00    0.483E+00
RMM:   4    -0.943028411439E+02    0.35005E+00   -0.42022E-01  7118   0.117E+00    0.289E+00
RMM:   5    -0.943508856964E+02   -0.48045E-01   -0.10271E-01  8021   0.649E-01    0.191E+00
RMM:   6    -0.943568993434E+02   -0.60136E-02   -0.53062E-02  7472   0.423E-01    0.191E+00
RMM:   7    -0.943016465430E+02    0.55253E-01   -0.32363E-02  7901   0.285E-01    0.369E-01
RMM:   8    -0.943068219309E+02   -0.51754E-02   -0.56097E-03  8387   0.156E-01    0.460E-01
RMM:   9    -0.943088160375E+02   -0.19941E-02   -0.71358E-03  8187   0.113E-01    0.595E-01
RMM:  10    -0.943045943961E+02    0.42216E-02   -0.25851E-03  7296   0.923E-02    0.479E-02
RMM:  11    -0.943052494052E+02   -0.65501E-03   -0.13436E-03  7021   0.554E-02    0.121E-01
RMM:  12    -0.943052242750E+02    0.25130E-04   -0.63690E-04  6591   0.389E-02    0.691E-02
RMM:  13    -0.943052723107E+02   -0.48036E-04   -0.37750E-04  6387   0.299E-02    0.285E-02
RMM:  14    -0.943053042621E+02   -0.31951E-04   -0.24310E-04  5831   0.236E-02    0.894E-03
RMM:  15    -0.943053410965E+02   -0.36834E-04   -0.15878E-04  5139   0.177E-02    0.372E-03
RMM:  16    -0.943053653738E+02   -0.24277E-04   -0.10914E-04  4593   0.145E-02    0.316E-03
RMM:  17    -0.943053777570E+02   -0.12383E-04   -0.71419E-05  3949   0.119E-02    0.296E-03
RMM:  18    -0.943053964925E+02   -0.18736E-04   -0.54076E-05  3935   0.105E-02    0.190E-03
RMM:  19    -0.943054025373E+02   -0.60448E-05   -0.34406E-05  3331   0.865E-03
  13 F= -.97425758E+02 E0= -.97417605E+02  d E =-.635038E+00
       N       E                     dE             d eps       ncg     rms          rms(c)
DAV:   1    -0.942880819079E+02    0.17315E-01   -0.18407E+01  5560   0.105E+01    0.309E+00
RMM:   2    -0.944524390897E+02   -0.16436E+00   -0.63799E-01  6681   0.235E+00    0.346E+00
RMM:   3    -0.944369245461E+02    0.15515E-01   -0.20539E-01  7739   0.126E+00    0.297E+00
RMM:   4    -0.943483927216E+02    0.88532E-01   -0.42599E-02  7645   0.594E-01    0.110E+00
RMM:   5    -0.943487268024E+02   -0.33408E-03   -0.16799E-02  7941   0.344E-01    0.600E-01
RMM:   6    -0.943419574905E+02    0.67693E-02   -0.10794E-02  7935   0.208E-01    0.450E-01
RMM:   7    -0.943405156916E+02    0.14418E-02   -0.26922E-03  8643   0.118E-01    0.198E-01
RMM:   8    -0.943406006331E+02   -0.84942E-04   -0.14581E-03  7750   0.683E-02    0.821E-02
RMM:   9    -0.943408087392E+02   -0.20811E-03   -0.67120E-04  7185   0.468E-02    0.221E-02
RMM:  10    -0.943408759059E+02   -0.67167E-04   -0.37374E-04  6686   0.319E-02    0.112E-02
RMM:  11    -0.943409261066E+02   -0.50201E-04   -0.21486E-04  6134   0.233E-02    0.798E-03
RMM:  12    -0.943409890207E+02   -0.62914E-04   -0.14177E-04  5654   0.188E-02    0.493E-03
RMM:  13    -0.943409947447E+02   -0.57240E-05   -0.82900E-05  4872   0.143E-02
  14 F= -.97464828E+02 E0= -.97456184E+02  d E =-.390694E-01
       N       E                     dE             d eps       ncg     rms          rms(c)
DAV:   1    -0.943437832819E+02   -0.27943E-02   -0.11820E+00  5872   0.264E+00    0.702E-01
RMM:   2    -0.943565177931E+02   -0.12735E-01   -0.40948E-02  6630   0.588E-01    0.108E+00
RMM:   3    -0.943482846817E+02    0.82331E-02   -0.96054E-03  7760   0.302E-01    0.494E-01
RMM:   4    -0.943480869839E+02    0.19770E-03   -0.30200E-03  7834   0.141E-01    0.262E-01
RMM:   5    -0.943470360088E+02    0.10510E-02   -0.85108E-04  7205   0.769E-02    0.113E-01
RMM:   6    -0.943468644804E+02    0.17153E-03   -0.28397E-04  7121   0.435E-02    0.330E-02
RMM:   7    -0.943468773192E+02   -0.12839E-04   -0.11525E-04  6172   0.242E-02    0.173E-02
RMM:   8    -0.943468854709E+02   -0.81516E-05   -0.57823E-05  4858   0.161E-02
  15 F= -.97469819E+02 E0= -.97461310E+02  d E =-.440605E-01
       N       E                     dE             d eps       ncg     rms          rms(c)
DAV:   1    -0.943767548491E+02   -0.29878E-01   -0.32265E+00  5640   0.442E+00    0.146E+00
RMM:   2    -0.947252162028E+02   -0.34846E+00   -0.23957E-01  6487   0.110E+00    0.540E+00
RMM:   3    -0.943588271230E+02    0.36639E+00   -0.88192E-02  7075   0.718E-01    0.878E-01
RMM:   4    -0.943827949240E+02   -0.23968E-01   -0.19026E-02  7612   0.322E-01    0.394E-01
RMM:   5    -0.943804494300E+02    0.23455E-02   -0.42900E-03  7202   0.161E-01    0.239E-01
RMM:   6    -0.943791521313E+02    0.12973E-02   -0.12566E-03  7572   0.925E-02    0.883E-02
RMM:   7    -0.943791922406E+02   -0.40109E-04   -0.56707E-04  7336   0.488E-02    0.639E-02
RMM:   8    -0.943792201699E+02   -0.27929E-04   -0.22879E-04  6050   0.283E-02    0.353E-02
RMM:   9    -0.943792388177E+02   -0.18648E-04   -0.10023E-04  5313   0.181E-02    0.989E-03
RMM:  10    -0.943792501913E+02   -0.11374E-04   -0.54251E-05  4484   0.130E-02    0.437E-03
RMM:  11    -0.943792581409E+02   -0.79496E-05   -0.30623E-05  3997   0.955E-03
  16 F= -.97503343E+02 E0= -.97494582E+02  d E =-.335241E-01
       N       E                     dE             d eps       ncg     rms          rms(c)
DAV:   1    -0.943867073090E+02   -0.74571E-02   -0.11655E+01  5440   0.845E+00    0.256E+00
RMM:   2    -0.954091270470E+02   -0.10224E+01   -0.86493E-01  6534   0.215E+00    0.825E+00
RMM:   3    -0.943605324513E+02    0.10486E+01   -0.27736E-01  7137   0.133E+00    0.134E+00
RMM:   4    -0.944075948740E+02   -0.47062E-01   -0.65089E-02  7691   0.565E-01    0.639E-01
RMM:   5    -0.944045109748E+02    0.30839E-02   -0.14575E-02  7465   0.286E-01    0.490E-01
RMM:   6    -0.943997904124E+02    0.47206E-02   -0.48408E-03  7652   0.168E-01    0.169E-01
RMM:   7    -0.943999479276E+02   -0.15752E-03   -0.20991E-03  8372   0.911E-02    0.110E-01
RMM:   8    -0.944000094003E+02   -0.61473E-04   -0.81388E-04  6982   0.500E-02    0.365E-02
RMM:   9    -0.944000748288E+02   -0.65428E-04   -0.39507E-04  6328   0.324E-02    0.206E-02
RMM:  10    -0.944001115239E+02   -0.36695E-04   -0.20279E-04  5823   0.223E-02    0.852E-03
RMM:  11    -0.944001354956E+02   -0.23972E-04   -0.12478E-04  5280   0.164E-02    0.576E-03
RMM:  12    -0.944001576061E+02   -0.22111E-04   -0.74470E-05  4720   0.129E-02    0.171E-03
RMM:  13    -0.944001667618E+02   -0.91556E-05   -0.44747E-05  4232   0.103E-02
  17 F= -.97526545E+02 E0= -.97517325E+02  d E =-.567257E-01
       N       E                     dE             d eps       ncg     rms          rms(c)
DAV:   1    -0.944116353791E+02   -0.11478E-01   -0.22840E+00  6016   0.356E+00    0.481E-01
RMM:   2    -0.944255817209E+02   -0.13946E-01   -0.57105E-02  6317   0.828E-01    0.909E-01
RMM:   3    -0.944187855218E+02    0.67962E-02   -0.21269E-02  7679   0.462E-01    0.379E-01
RMM:   4    -0.944185940604E+02    0.19146E-03   -0.33073E-03  7822   0.172E-01    0.208E-01
RMM:   5    -0.944179273259E+02    0.66673E-03   -0.64732E-04  7673   0.772E-02    0.112E-01
RMM:   6    -0.944179636691E+02   -0.36343E-04   -0.33983E-04  6905   0.423E-02    0.455E-02
RMM:   7    -0.944179624607E+02    0.12083E-05   -0.11738E-04  5903   0.254E-02    0.121E-02
RMM:   8    -0.944179714135E+02   -0.89527E-05   -0.66089E-05  5072   0.164E-02
  18 F= -.97545096E+02 E0= -.97535476E+02  d E =-.185512E-01
       N       E                     dE             d eps       ncg     rms          rms(c)
DAV:   1    -0.944094089000E+02    0.85536E-02   -0.91608E+00  5632   0.717E+00    0.984E-01
RMM:   2    -0.944668842749E+02   -0.57475E-01   -0.24141E-01  6324   0.170E+00    0.176E+00
RMM:   3    -0.944415529125E+02    0.25331E-01   -0.92381E-02  7710   0.928E-01    0.793E-01
RMM:   4    -0.944388485166E+02    0.27044E-02   -0.13765E-02  7939   0.358E-01    0.418E-01
RMM:   5    -0.944363004906E+02    0.25480E-02   -0.26724E-03  8215   0.159E-01    0.240E-01
RMM:   6    -0.944364192688E+02   -0.11878E-03   -0.13859E-03  8067   0.855E-02    0.125E-01
RMM:   7    -0.944363658940E+02    0.53375E-04   -0.47264E-04  6977   0.526E-02    0.276E-02
RMM:   8    -0.944364008398E+02   -0.34946E-04   -0.25376E-04  6586   0.313E-02    0.862E-03
RMM:   9    -0.944364197014E+02   -0.18862E-04   -0.15207E-04  5542   0.202E-02    0.776E-03
RMM:  10    -0.944364327864E+02   -0.13085E-04   -0.81898E-05  5016   0.149E-02    0.370E-03
RMM:  11    -0.944364423326E+02   -0.95462E-05   -0.55625E-05  4592   0.116E-02
  19 F= -.97565149E+02 E0= -.97554768E+02  d E =-.386047E-01
       N       E                     dE             d eps       ncg     rms          rms(c)
DAV:   1    -0.944337897517E+02    0.26430E-02   -0.13118E+00  5976   0.270E+00    0.363E-01
RMM:   2    -0.944418435599E+02   -0.80538E-02   -0.32981E-02  6285   0.625E-01    0.705E-01
RMM:   3    -0.944378800192E+02    0.39635E-02   -0.12159E-02  7627   0.351E-01    0.292E-01
RMM:   4    -0.944378197303E+02    0.60289E-04   -0.20009E-03  7806   0.134E-01    0.156E-01
RMM:   5    -0.944374466512E+02    0.37308E-03   -0.39485E-04  7303   0.587E-02    0.847E-02
RMM:   6    -0.944374681053E+02   -0.21454E-04   -0.21645E-04  6450   0.333E-02    0.345E-02
RMM:   7    -0.944374702926E+02   -0.21873E-05   -0.86702E-05  5417   0.206E-02
  20 F= -.97566805E+02 E0= -.97556149E+02  d E =-.402607E-01
       N       E                     dE             d eps       ncg     rms          rms(c)
DAV:   1    -0.944441409914E+02   -0.66729E-02   -0.25623E+00  5696   0.390E+00    0.789E-01
RMM:   2    -0.947073506388E+02   -0.26321E+00   -0.17478E-01  6368   0.102E+00    0.487E+00
RMM:   3    -0.944256122279E+02    0.28174E+00   -0.54972E-02  7343   0.650E-01    0.439E-01
RMM:   4    -0.944452348324E+02   -0.19623E-01   -0.12818E-02  8009   0.264E-01    0.235E-01
RMM:   5    -0.944460201239E+02   -0.78529E-03   -0.24773E-03  8099   0.122E-01    0.186E-01
RMM:   6    -0.944458297398E+02    0.19038E-03   -0.11676E-03  7560   0.717E-02    0.740E-02
RMM:   7    -0.944459084020E+02   -0.78662E-04   -0.36126E-04  7052   0.409E-02    0.310E-02
RMM:   8    -0.944459282323E+02   -0.19830E-04   -0.17584E-04  6107   0.257E-02    0.918E-03
RMM:   9    -0.944459427909E+02   -0.14559E-04   -0.90884E-05  5365   0.177E-02    0.640E-03
RMM:  10    -0.944459541272E+02   -0.11336E-04   -0.57425E-05  4855   0.133E-02    0.528E-03
RMM:  11    -0.944459675572E+02   -0.13430E-04   -0.33571E-05  4535   0.116E-02    0.171E-03
RMM:  12    -0.944459763863E+02   -0.88291E-05   -0.24025E-05  4204   0.921E-03
  21 F= -.97575454E+02 E0= -.97564455E+02  d E =-.864826E-02
       N       E                     dE             d eps       ncg     rms          rms(c)
DAV:   1    -0.944466415654E+02   -0.67401E-03   -0.11535E-01  6104   0.830E-01    0.171E-01
RMM:   2    -0.944582432590E+02   -0.11602E-01   -0.71903E-03  6162   0.215E-01    0.949E-01
RMM:   3    -0.944455428660E+02    0.12700E-01   -0.23429E-03  6873   0.140E-01    0.103E-01
RMM:   4    -0.944466283186E+02   -0.10855E-02   -0.79888E-04  6256   0.609E-02    0.537E-02
RMM:   5    -0.944466951900E+02   -0.66871E-04   -0.14159E-04  5531   0.300E-02    0.349E-02
RMM:   6    -0.944467064246E+02   -0.11235E-04   -0.50707E-05  5013   0.166E-02    0.148E-02
RMM:   7    -0.944467120151E+02   -0.55905E-05   -0.14412E-05  3842   0.992E-03
  22 F= -.97576157E+02 E0= -.97565232E+02  d E =-.935142E-02
       N       E                     dE             d eps       ncg     rms          rms(c)
DAV:   1    -0.944542456381E+02   -0.75392E-02   -0.76027E-01  5480   0.212E+00    0.753E-01
RMM:   2    -0.945551916514E+02   -0.10095E+00   -0.67031E-02  6724   0.581E-01    0.250E+00
RMM:   3    -0.944512386240E+02    0.10395E+00   -0.21623E-02  7190   0.363E-01    0.421E-01
RMM:   4    -0.944561517075E+02   -0.49131E-02   -0.77177E-03  7607   0.181E-01    0.272E-01
RMM:   5    -0.944552616314E+02    0.89008E-03   -0.11874E-03  7813   0.906E-02    0.911E-02
RMM:   6    -0.944552288336E+02    0.32798E-04   -0.35587E-04  7349   0.448E-02    0.416E-02
RMM:   7    -0.944552457098E+02   -0.16876E-04   -0.14125E-04  6397   0.266E-02    0.220E-02
RMM:   8    -0.944552611035E+02   -0.15394E-04   -0.87261E-05  5647   0.184E-02    0.112E-02
RMM:   9    -0.944552688035E+02   -0.77000E-05   -0.44019E-05  4633   0.127E-02
  23 F= -.97584315E+02 E0= -.97573123E+02  d E =-.815768E-02
       N       E                     dE             d eps       ncg     rms          rms(c)
DAV:   1    -0.944578777022E+02   -0.26166E-02   -0.12637E+00  5440   0.272E+00    0.997E-01
RMM:   2    -0.946255634102E+02   -0.16769E+00   -0.11133E-01  6732   0.755E-01    0.307E+00
RMM:   3    -0.944545610765E+02    0.17100E+00   -0.35239E-02  7260   0.461E-01    0.558E-01
RMM:   4    -0.944609405625E+02   -0.63795E-02   -0.13729E-02  7750   0.234E-01    0.364E-01
RMM:   5    -0.944596062089E+02    0.13344E-02   -0.20134E-03  7973   0.118E-01    0.134E-01
RMM:   6    -0.944595111399E+02    0.95069E-04   -0.65061E-04  7676   0.599E-02    0.514E-02
RMM:   7    -0.944595557183E+02   -0.44578E-04   -0.25903E-04  6879   0.357E-02    0.289E-02
RMM:   8    -0.944595848585E+02   -0.29140E-04   -0.15915E-04  6142   0.244E-02    0.123E-02
RMM:   9    -0.944595996945E+02   -0.14836E-04   -0.83267E-05  5346   0.169E-02    0.766E-03
RMM:  10    -0.944596100865E+02   -0.10392E-04   -0.46770E-05  4958   0.131E-02    0.252E-03
RMM:  11    -0.944596158903E+02   -0.58039E-05   -0.29413E-05  4371   0.103E-02
  24 F= -.97588163E+02 E0= -.97576625E+02  d E =-.120066E-01
       N       E                     dE             d eps       ncg     rms          rms(c)
DAV:   1    -0.944620575253E+02   -0.24474E-02   -0.65091E-01  5456   0.179E+00    0.432E-01
RMM:   2    -0.944679604961E+02   -0.59030E-02   -0.39861E-02  6940   0.448E-01    0.595E-01
RMM:   3    -0.944660341211E+02    0.19264E-02   -0.63713E-03  7965   0.212E-01    0.337E-01
RMM:   4    -0.944653421391E+02    0.69198E-03   -0.14845E-03  7748   0.991E-02    0.135E-01
RMM:   5    -0.944654793128E+02   -0.13717E-03   -0.80635E-04  7354   0.573E-02    0.579E-02
RMM:   6    -0.944654134242E+02    0.65889E-04   -0.26733E-04  6665   0.351E-02    0.298E-02
RMM:   7    -0.944654177178E+02   -0.42937E-05   -0.13781E-04  6195   0.228E-02    0.139E-02
RMM:   8    -0.944654275531E+02   -0.98353E-05   -0.83234E-05  5142   0.157E-02
  25 F= -.97593117E+02 E0= -.97581462E+02  d E =-.495320E-02
       N       E                     dE             d eps       ncg     rms          rms(c)
DAV:   1    -0.944655846327E+02   -0.16691E-03   -0.40663E-02  6184   0.456E-01    0.109E-01
RMM:   2    -0.944659337074E+02   -0.34907E-03   -0.25268E-03  6693   0.114E-01    0.141E-01
RMM:   3    -0.944658471191E+02    0.86588E-04   -0.44278E-04  7219   0.550E-02    0.916E-02
RMM:   4    -0.944657959661E+02    0.51153E-04   -0.11908E-04  5926   0.286E-02    0.356E-02
RMM:   5    -0.944658127884E+02   -0.16822E-04   -0.74597E-05  5193   0.181E-02    0.172E-02
RMM:   6    -0.944658072570E+02    0.55314E-05   -0.31819E-05  4353   0.117E-02
  26 F= -.97593281E+02 E0= -.97581600E+02  d E =-.511777E-02
       N       E                     dE             d eps       ncg     rms          rms(c)
DAV:   1    -0.944708511796E+02   -0.50384E-02   -0.41993E-01  5464   0.147E+00    0.696E-01
RMM:   2    -0.945818535608E+02   -0.11100E+00   -0.53327E-02  6824   0.421E-01    0.261E+00
RMM:   3    -0.944652973013E+02    0.11656E+00   -0.20385E-02  6733   0.290E-01    0.367E-01
RMM:   4    -0.944701661519E+02   -0.48689E-02   -0.60750E-03  7679   0.153E-01    0.217E-01
RMM:   5    -0.944700705197E+02    0.95632E-04   -0.99319E-04  7563   0.731E-02    0.988E-02
RMM:   6    -0.944699963511E+02    0.74169E-04   -0.27219E-04  6594   0.365E-02    0.341E-02
RMM:   7    -0.944700128221E+02   -0.16471E-04   -0.10743E-04  5963   0.221E-02    0.170E-02
RMM:   8    -0.944700236034E+02   -0.10781E-04   -0.63531E-05  5036   0.152E-02    0.842E-03
RMM:   9    -0.944700291405E+02   -0.55371E-05   -0.29684E-05  4143   0.108E-02
  27 F= -.97596725E+02 E0= -.97584997E+02  d E =-.344348E-02
       N       E                     dE             d eps       ncg     rms          rms(c)
DAV:   1    -0.944705223124E+02   -0.49871E-03   -0.37440E-02  5840   0.439E-01    0.209E-01
RMM:   2    -0.944812748315E+02   -0.10753E-01   -0.50865E-03  6647   0.128E-01    0.916E-01
RMM:   3    -0.944694250749E+02    0.11850E-01   -0.21023E-03  6302   0.948E-02    0.121E-01
RMM:   4    -0.944704777649E+02   -0.10527E-02   -0.80658E-04  5813   0.550E-02    0.684E-02
RMM:   5    -0.944704516043E+02    0.26161E-04   -0.11714E-04  5554   0.277E-02    0.240E-02
RMM:   6    -0.944704509035E+02    0.70081E-06   -0.39081E-05  4796   0.141E-02
  28 F= -.97596914E+02 E0= -.97585158E+02  d E =-.363322E-02
       N       E                     dE             d eps       ncg     rms          rms(c)
DAV:   1    -0.944722010138E+02   -0.17494E-02   -0.11238E-01  5880   0.822E-01    0.111E-01
RMM:   2    -0.944726109128E+02   -0.40990E-03   -0.29395E-03  6051   0.192E-01    0.116E-01
RMM:   3    -0.944728997720E+02   -0.28886E-03   -0.11596E-03  7629   0.107E-01    0.189E-01
RMM:   4    -0.944725090664E+02    0.39071E-03   -0.17120E-04  6601   0.443E-02    0.440E-02
RMM:   5    -0.944725613584E+02   -0.52292E-04   -0.58882E-05  5304   0.207E-02    0.230E-02
RMM:   6    -0.944725710714E+02   -0.97130E-05   -0.24744E-05  4096   0.125E-02
  29 F= -.97598722E+02 E0= -.97587029E+02  d E =-.180723E-02
       N       E                     dE             d eps       ncg     rms          rms(c)
DAV:   1    -0.944743945619E+02   -0.18332E-02   -0.10118E+00  5520   0.247E+00    0.324E-01
RMM:   2    -0.944773279222E+02   -0.29334E-02   -0.26230E-02  6205   0.577E-01    0.264E-01
RMM:   3    -0.944818217148E+02   -0.44938E-02   -0.10662E-02  7823   0.321E-01    0.638E-01
RMM:   4    -0.944772460395E+02    0.45757E-02   -0.15756E-03  7355   0.129E-01    0.125E-01
RMM:   5    -0.944775788600E+02   -0.33282E-03   -0.50524E-04  7647   0.582E-02    0.797E-02
RMM:   6    -0.944776683170E+02   -0.89457E-04   -0.16599E-04  6337   0.307E-02    0.414E-02
RMM:   7    -0.944776377654E+02    0.30552E-04   -0.88394E-05  5746   0.210E-02    0.110E-02
RMM:   8    -0.944776459928E+02   -0.82274E-05   -0.44996E-05  4755   0.141E-02
  30 F= -.97602860E+02 E0= -.97591406E+02  d E =-.594525E-02
       N       E                     dE             d eps       ncg     rms          rms(c)
DAV:   1    -0.944690217013E+02    0.86161E-02   -0.40485E+00  5544   0.494E+00    0.658E-01
RMM:   2    -0.944812818731E+02   -0.12260E-01   -0.10611E-01  6270   0.117E+00    0.553E-01
RMM:   3    -0.944986672511E+02   -0.17385E-01   -0.43871E-02  7992   0.641E-01    0.128E+00
RMM:   4    -0.944810174260E+02    0.17650E-01   -0.64355E-03  7781   0.259E-01    0.249E-01
RMM:   5    -0.944820745518E+02   -0.10571E-02   -0.18855E-03  8154   0.113E-01    0.166E-01
RMM:   6    -0.944822881539E+02   -0.21360E-03   -0.62709E-04  7552   0.584E-02    0.810E-02
RMM:   7    -0.944821774596E+02    0.11069E-03   -0.31826E-04  6663   0.387E-02    0.233E-02
RMM:   8    -0.944822064502E+02   -0.28991E-04   -0.15139E-04  6037   0.251E-02    0.125E-02
RMM:   9    -0.944822150647E+02   -0.86145E-05   -0.79049E-05  5349   0.168E-02
  31 F= -.97605563E+02 E0= -.97594564E+02  d E =-.864815E-02
       N       E                     dE             d eps       ncg     rms          rms(c)
DAV:   1    -0.944830705505E+02   -0.86410E-03   -0.30315E-02  6136   0.428E-01    0.984E-02
RMM:   2    -0.944857426876E+02   -0.26721E-02   -0.15811E-03  6221   0.110E-01    0.459E-01
RMM:   3    -0.944828034591E+02    0.29392E-02   -0.66525E-04  6739   0.739E-02    0.563E-02
RMM:   4    -0.944831059277E+02   -0.30247E-03   -0.22694E-04  5830   0.339E-02    0.292E-02
RMM:   5    -0.944831126377E+02   -0.67100E-05   -0.49938E-05  4784   0.180E-02
  32 F= -.97606319E+02 E0= -.97595349E+02  d E =-.756113E-03
       N       E                     dE             d eps       ncg     rms          rms(c)
DAV:   1    -0.944849205192E+02   -0.18146E-02   -0.27260E-01  5880   0.128E+00    0.309E-01
RMM:   2    -0.945108438184E+02   -0.25923E-01   -0.14113E-02  6242   0.328E-01    0.137E+00
RMM:   3    -0.944831814206E+02    0.27662E-01   -0.63503E-03  7086   0.221E-01    0.170E-01
RMM:   4    -0.944851511859E+02   -0.19698E-02   -0.16724E-03  7103   0.938E-02    0.944E-02
RMM:   5    -0.944851342790E+02    0.16907E-04   -0.26732E-04  6566   0.440E-02    0.562E-02
RMM:   6    -0.944851184911E+02    0.15788E-04   -0.81663E-05  5523   0.216E-02    0.283E-02
RMM:   7    -0.944851216724E+02   -0.31812E-05   -0.36367E-05  4229   0.132E-02
  33 F= -.97607904E+02 E0= -.97597042E+02  d E =-.234124E-02
       N       E                     dE             d eps       ncg     rms          rms(c)
DAV:   1    -0.944854143703E+02   -0.29588E-03   -0.10901E+00  5592   0.257E+00    0.608E-01
RMM:   2    -0.945798505439E+02   -0.94436E-01   -0.53541E-02  6277   0.647E-01    0.245E+00
RMM:   3    -0.944817504618E+02    0.98100E-01   -0.22866E-02  7184   0.424E-01    0.324E-01
RMM:   4    -0.944864371273E+02   -0.46867E-02   -0.63459E-03  7638   0.175E-01    0.186E-01
RMM:   5    -0.944863913135E+02    0.45814E-04   -0.91660E-04  7605   0.806E-02    0.115E-01
RMM:   6    -0.944863092308E+02    0.82083E-04   -0.26435E-04  6508   0.385E-02    0.519E-02
RMM:   7    -0.944863196840E+02   -0.10453E-04   -0.10713E-04  5764   0.229E-02    0.137E-02
RMM:   8    -0.944863281226E+02   -0.84386E-05   -0.54748E-05  4630   0.153E-02
  34 F= -.97608265E+02 E0= -.97597615E+02  d E =-.270252E-02
       N       E                     dE             d eps       ncg     rms          rms(c)
DAV:   1    -0.944861272797E+02    0.19240E-03   -0.18890E-01  5984   0.107E+00    0.251E-01
RMM:   2    -0.945037507832E+02   -0.17624E-01   -0.10002E-02  6079   0.266E-01    0.123E+00
RMM:   3    -0.944849554092E+02    0.18795E-01   -0.45979E-03  6911   0.186E-01    0.143E-01
RMM:   4    -0.944863305662E+02   -0.13752E-02   -0.10967E-03  6547   0.784E-02    0.736E-02
RMM:   5    -0.944862995119E+02    0.31054E-04   -0.16458E-04  5739   0.366E-02    0.430E-02
RMM:   6    -0.944862871175E+02    0.12394E-04   -0.41986E-05  4962   0.178E-02    0.240E-02
RMM:   7    -0.944862885324E+02   -0.14149E-05   -0.15848E-05  3725   0.105E-02
  35 F= -.97608577E+02 E0= -.97597833E+02  d E =-.301469E-02
       N       E                     dE             d eps       ncg     rms          rms(c)
DAV:   1    -0.944865500578E+02   -0.26294E-03   -0.11328E-03  6112   0.817E-02    0.422E-02
RMM:   2    -0.944866571270E+02   -0.10707E-03   -0.71022E-05  4655   0.200E-02    0.923E-02
RMM:   3    -0.944865427077E+02    0.11442E-03   -0.36705E-05  4164   0.149E-02    0.394E-02
RMM:   4    -0.944865541098E+02   -0.11402E-04   -0.10485E-05  3296   0.101E-02    0.873E-03
RMM:   5    -0.944865537328E+02    0.37696E-06   -0.52767E-06  2695   0.563E-03
  36 F= -.97608848E+02 E0= -.97598110E+02  d E =-.270628E-03
       N       E                     dE             d eps       ncg     rms          rms(c)
DAV:   1    -0.944872704767E+02   -0.71637E-03   -0.10323E-02  5760   0.243E-01    0.117E-01
RMM:   2    -0.944879831137E+02   -0.71264E-03   -0.59422E-04  6332   0.569E-02    0.242E-01
RMM:   3    -0.944872982901E+02    0.68482E-03   -0.27870E-04  5538   0.386E-02    0.112E-01
RMM:   4    -0.944873239667E+02   -0.25677E-04   -0.71670E-05  4907   0.246E-02    0.349E-02
RMM:   5    -0.944872963280E+02    0.27639E-04   -0.20941E-05  4296   0.123E-02    0.131E-02
RMM:   6    -0.944872971874E+02   -0.85946E-06   -0.92920E-06  3204   0.792E-03
  37 F= -.97609608E+02 E0= -.97598889E+02  d E =-.103041E-02
       N       E                     dE             d eps       ncg     rms          rms(c)
DAV:   1    -0.944884760735E+02   -0.11797E-02   -0.41233E-02  5496   0.483E-01    0.231E-01
RMM:   2    -0.944912277876E+02   -0.27517E-02   -0.23360E-03  6550   0.113E-01    0.479E-01
RMM:   3    -0.944887282268E+02    0.24996E-02   -0.10974E-03  6810   0.740E-02    0.218E-01
RMM:   4    -0.944886862614E+02    0.41965E-04   -0.26554E-04  5868   0.448E-02    0.675E-02
RMM:   5    -0.944885843113E+02    0.10195E-03   -0.69714E-05  5430   0.225E-02    0.270E-02
RMM:   6    -0.944885842778E+02    0.33437E-07   -0.32584E-05  4634   0.134E-02
  38 F= -.97610928E+02 E0= -.97600240E+02  d E =-.235041E-02
       N       E                     dE             d eps       ncg     rms          rms(c)
DAV:   1    -0.944899068658E+02   -0.13226E-02   -0.16477E-01  5496   0.965E-01    0.455E-01
RMM:   2    -0.945007070364E+02   -0.10800E-01   -0.93999E-03  6679   0.221E-01    0.959E-01
RMM:   3    -0.944912220105E+02    0.94850E-02   -0.43284E-03  7291   0.144E-01    0.425E-01
RMM:   4    -0.944907676435E+02    0.45437E-03   -0.93620E-04  6915   0.836E-02    0.136E-01
RMM:   5    -0.944903552121E+02    0.41243E-03   -0.27723E-04  6613   0.421E-02    0.559E-02
RMM:   6    -0.944903493068E+02    0.59053E-05   -0.11434E-04  5987   0.245E-02    0.185E-02
RMM:   7    -0.944903599973E+02   -0.10690E-04   -0.50694E-05  4832   0.157E-02    0.127E-02
RMM:   8    -0.944903620988E+02   -0.21015E-05   -0.21053E-05  3803   0.103E-02
  39 F= -.97612772E+02 E0= -.97602142E+02  d E =-.419490E-02
       N       E                     dE             d eps       ncg     rms          rms(c)
DAV:   1    -0.944890586003E+02    0.13014E-02   -0.65857E-01  5496   0.192E+00    0.879E-01
RMM:   2    -0.945310125713E+02   -0.41954E-01   -0.38279E-02  6855   0.438E-01    0.192E+00
RMM:   3    -0.944927328903E+02    0.38280E-01   -0.16050E-02  7578   0.279E-01    0.791E-01
RMM:   4    -0.944926807017E+02    0.52189E-04   -0.33386E-03  7374   0.156E-01    0.277E-01
RMM:   5    -0.944908925534E+02    0.17881E-02   -0.10354E-03  7280   0.812E-02    0.114E-01
RMM:   6    -0.944908487541E+02    0.43799E-04   -0.45349E-04  7327   0.471E-02    0.394E-02
RMM:   7    -0.944908825781E+02   -0.33824E-04   -0.15863E-04  6137   0.276E-02    0.280E-02
RMM:   8    -0.944908927014E+02   -0.10123E-04   -0.89259E-05  5318   0.183E-02    0.177E-02
RMM:   9    -0.944908979002E+02   -0.51988E-05   -0.51993E-05  4630   0.135E-02
  40 F= -.97613445E+02 E0= -.97602943E+02  d E =-.486754E-02
       N       E                     dE             d eps       ncg     rms          rms(c)
DAV:   1    -0.944909914006E+02   -0.98699E-04   -0.68084E-02  5656   0.614E-01    0.275E-01
RMM:   2    -0.944950581036E+02   -0.40667E-02   -0.35596E-03  6478   0.140E-01    0.567E-01
RMM:   3    -0.944913104243E+02    0.37477E-02   -0.15925E-03  6913   0.904E-02    0.256E-01
RMM:   4    -0.944913099605E+02    0.46379E-06   -0.33294E-04  6037   0.515E-02    0.767E-02
RMM:   5    -0.944911681856E+02    0.14177E-03   -0.93393E-05  5324   0.253E-02    0.307E-02
RMM:   6    -0.944911681025E+02    0.83084E-07   -0.34420E-05  4717   0.150E-02
  41 F= -.97613671E+02 E0= -.97603116E+02  d E =-.509332E-02
       N       E                     dE             d eps       ncg     rms          rms(c)
DAV:   1    -0.944925710663E+02   -0.14029E-02   -0.10258E-01  5552   0.648E-01    0.364E-01
RMM:   2    -0.945447143190E+02   -0.52143E-01   -0.23239E-02  6144   0.210E-01    0.220E+00
RMM:   3    -0.944863686118E+02    0.58346E-01   -0.93446E-03  6124   0.179E-01    0.197E-01
RMM:   4    -0.944913645424E+02   -0.49959E-02   -0.18390E-03  5878   0.902E-02    0.951E-02
RMM:   5    -0.944915198300E+02   -0.15529E-03   -0.45501E-04  5100   0.464E-02    0.505E-02
RMM:   6    -0.944915143922E+02    0.54378E-05   -0.12094E-04  5073   0.244E-02    0.220E-02
RMM:   7    -0.944915175429E+02   -0.31507E-05   -0.28634E-05  4459   0.124E-02
  42 F= -.97613730E+02 E0= -.97603198E+02  d E =-.591532E-04
       N       E                     dE             d eps       ncg     rms          rms(c)
DAV:   1    -0.944918597503E+02   -0.34536E-03   -0.21721E-02  5864   0.301E-01    0.169E-01
RMM:   2    -0.945023911624E+02   -0.10531E-01   -0.44679E-03  5870   0.966E-02    0.916E-01
RMM:   3    -0.944905431420E+02    0.11848E-01   -0.18158E-03  5762   0.833E-02    0.921E-02
RMM:   4    -0.944915768303E+02   -0.10337E-02   -0.44384E-04  4548   0.439E-02    0.464E-02
RMM:   5    -0.944916463877E+02   -0.69557E-04   -0.14088E-04  4587   0.246E-02    0.206E-02
RMM:   6    -0.944916518728E+02   -0.54851E-05   -0.28050E-05  4307   0.118E-02
  43 F= -.97613998E+02 E0= -.97603441E+02  d E =-.327555E-03
       N       E                     dE             d eps       ncg     rms          rms(c)
DAV:   1    -0.944925046808E+02   -0.85829E-03   -0.52326E-02  5480   0.551E-01    0.917E-02
RMM:   2    -0.944926192311E+02   -0.11455E-03   -0.11634E-03  6087   0.109E-01    0.586E-02
RMM:   3    -0.944930265807E+02   -0.40735E-03   -0.45807E-04  7213   0.591E-02    0.185E-01
RMM:   4    -0.944925527090E+02    0.47387E-03   -0.10168E-04  5195   0.308E-02    0.310E-02
RMM:   5    -0.944926306726E+02   -0.77964E-04   -0.41711E-05  4612   0.161E-02    0.216E-02
RMM:   6    -0.944926316136E+02   -0.94099E-06   -0.13075E-05  3533   0.968E-03
  44 F= -.97614634E+02 E0= -.97604038E+02  d E =-.636139E-03
       N       E                     dE             d eps       ncg     rms          rms(c)
DAV:   1    -0.944939807597E+02   -0.13501E-02   -0.47232E-01  5440   0.165E+00    0.277E-01
RMM:   2    -0.944948948663E+02   -0.91411E-03   -0.10619E-02  6295   0.330E-01    0.143E-01
RMM:   3    -0.944973448397E+02   -0.24500E-02   -0.36105E-03  7823   0.175E-01    0.447E-01
RMM:   4    -0.944948471098E+02    0.24977E-02   -0.73621E-04  7063   0.767E-02    0.956E-02
RMM:   5    -0.944951615822E+02   -0.31447E-03   -0.31376E-04  6576   0.411E-02    0.638E-02
RMM:   6    -0.944951484767E+02    0.13105E-04   -0.93676E-05  5688   0.238E-02    0.346E-02
RMM:   7    -0.944951476854E+02    0.79137E-06   -0.54878E-05  4661   0.158E-02
  45 F= -.97616122E+02 E0= -.97605403E+02  d E =-.212420E-02
       N       E                     dE             d eps       ncg     rms          rms(c)
DAV:   1    -0.944935788231E+02    0.15697E-02   -0.18910E+00  5440   0.330E+00    0.551E-01
RMM:   2    -0.944972954063E+02   -0.37166E-02   -0.42556E-02  6492   0.661E-01    0.279E-01
RMM:   3    -0.945071220839E+02   -0.98267E-02   -0.15011E-02  7919   0.352E-01    0.906E-01
RMM:   4    -0.944974889505E+02    0.96331E-02   -0.29067E-03  7424   0.152E-01    0.190E-01
RMM:   5    -0.944983610007E+02   -0.87205E-03   -0.12290E-03  7760   0.802E-02    0.131E-01
RMM:   6    -0.944982982011E+02    0.62800E-04   -0.35650E-04  6939   0.442E-02    0.747E-02
RMM:   7    -0.944982942320E+02    0.39691E-05   -0.18993E-04  6266   0.293E-02    0.209E-02
RMM:   8    -0.944983099943E+02   -0.15762E-04   -0.10583E-04  5196   0.190E-02    0.131E-02
RMM:   9    -0.944983158525E+02   -0.58582E-05   -0.56101E-05  4434   0.131E-02
  46 F= -.97617247E+02 E0= -.97606268E+02  d E =-.324918E-02
       N       E                     dE             d eps       ncg     rms          rms(c)
DAV:   1    -0.944991413631E+02   -0.83137E-03   -0.29248E-02  6096   0.418E-01    0.844E-02
RMM:   2    -0.945004757853E+02   -0.13344E-02   -0.12060E-03  6412   0.940E-02    0.326E-01
RMM:   3    -0.944990626622E+02    0.14131E-02   -0.40820E-04  6638   0.587E-02    0.502E-02
RMM:   4    -0.944992129203E+02   -0.15026E-03   -0.12649E-04  5516   0.294E-02    0.279E-02
RMM:   5    -0.944992062019E+02    0.67183E-05   -0.35316E-05  4584   0.148E-02
  47 F= -.97617848E+02 E0= -.97606814E+02  d E =-.601204E-03
       N       E                     dE             d eps       ncg     rms          rms(c)
DAV:   1    -0.945009504954E+02   -0.17376E-02   -0.26426E-01  5440   0.126E+00    0.255E-01
RMM:   2    -0.945149313255E+02   -0.13981E-01   -0.10866E-02  6502   0.275E-01    0.103E+00
RMM:   3    -0.945002711342E+02    0.14660E-01   -0.36804E-03  7270   0.173E-01    0.141E-01
RMM:   4    -0.945014558123E+02   -0.11847E-02   -0.11128E-03  7141   0.790E-02    0.840E-02
RMM:   5    -0.945013869258E+02    0.68886E-04   -0.18608E-04  6361   0.355E-02    0.557E-02
RMM:   6    -0.945013996684E+02   -0.12743E-04   -0.81063E-05  5612   0.196E-02    0.308E-02
RMM:   7    -0.945014016888E+02   -0.20204E-05   -0.40037E-05  4602   0.136E-02
  48 F= -.97619179E+02 E0= -.97608026E+02  d E =-.193179E-02
       N       E                     dE             d eps       ncg     rms          rms(c)
DAV:   1    -0.945018528410E+02   -0.45317E-03   -0.10569E+00  5440   0.251E+00    0.507E-01
RMM:   2    -0.945536993097E+02   -0.51846E-01   -0.41822E-02  6579   0.547E-01    0.189E+00
RMM:   3    -0.945010361888E+02    0.52663E-01   -0.13984E-02  7546   0.334E-01    0.261E-01
RMM:   4    -0.945039810717E+02   -0.29449E-02   -0.39495E-03  7647   0.147E-01    0.157E-01
RMM:   5    -0.945037120036E+02    0.26907E-03   -0.67720E-04  7668   0.673E-02    0.104E-01
RMM:   6    -0.945037492032E+02   -0.37200E-04   -0.30935E-04  6718   0.357E-02    0.601E-02
RMM:   7    -0.945037550646E+02   -0.58614E-05   -0.12960E-04  5990   0.241E-02    0.108E-02
RMM:   8    -0.945037703528E+02   -0.15288E-04   -0.75728E-05  5059   0.161E-02    0.714E-03
RMM:   9    -0.945037760891E+02   -0.57363E-05   -0.38950E-05  4123   0.111E-02
  49 F= -.97619835E+02 E0= -.97608427E+02  d E =-.258774E-02
       N       E                     dE             d eps       ncg     rms          rms(c)
DAV:   1    -0.945045781564E+02   -0.80780E-03   -0.42016E-02  5784   0.499E-01    0.739E-02
RMM:   2    -0.945050155462E+02   -0.43739E-03   -0.14757E-03  6375   0.109E-01    0.176E-01
RMM:   3    -0.945046399313E+02    0.37561E-03   -0.40114E-04  7050   0.595E-02    0.451E-02
RMM:   4    -0.945047098644E+02   -0.69933E-04   -0.76136E-05  5673   0.265E-02    0.275E-02
RMM:   5    -0.945047118444E+02   -0.19800E-05   -0.34950E-05  4349   0.135E-02
  50 F= -.97620389E+02 E0= -.97608917E+02  d E =-.553898E-03
       N       E                     dE             d eps       ncg     rms          rms(c)
DAV:   1    -0.945055532258E+02   -0.84336E-03   -0.28933E-01  5440   0.131E+00    0.189E-01
RMM:   2    -0.945083798251E+02   -0.28266E-02   -0.97520E-03  6358   0.285E-01    0.452E-01
RMM:   3    -0.945061929100E+02    0.21869E-02   -0.26597E-03  7621   0.154E-01    0.114E-01
RMM:   4    -0.945064075283E+02   -0.21462E-03   -0.44343E-04  7190   0.613E-02    0.730E-02
RMM:   5    -0.945064130230E+02   -0.54947E-05   -0.14858E-04  6381   0.295E-02    0.609E-02
RMM:   6    -0.945064009179E+02    0.12105E-04   -0.71401E-05  5450   0.187E-02    0.244E-02
RMM:   7    -0.945064114910E+02   -0.10573E-04   -0.40556E-05  4570   0.138E-02    0.450E-03
RMM:   8    -0.945064156677E+02   -0.41767E-05   -0.17619E-05  3655   0.960E-03
  51 F= -.97621095E+02 E0= -.97609541E+02  d E =-.125995E-02
       N       E                     dE             d eps       ncg     rms          rms(c)
DAV:   1    -0.945065931502E+02   -0.18166E-03   -0.10750E-02  6048   0.252E-01    0.381E-02
RMM:   2    -0.945067074900E+02   -0.11434E-03   -0.38406E-04  6110   0.556E-02    0.890E-02
RMM:   3    -0.945066086764E+02    0.98814E-04   -0.10689E-04  5693   0.306E-02    0.241E-02
RMM:   4    -0.945066294981E+02   -0.20822E-04   -0.24561E-05  4055   0.156E-02    0.138E-02
RMM:   5    -0.945066306967E+02   -0.11987E-05   -0.91862E-06  3143   0.830E-03
  52 F= -.97621118E+02 E0= -.97609531E+02  d E =-.128298E-02
       N       E                     dE             d eps       ncg     rms          rms(c)
DAV:   1    -0.945068831144E+02   -0.25362E-03   -0.25925E-03  5936   0.126E-01    0.316E-02
RMM:   2    -0.945072249526E+02   -0.34184E-03   -0.19619E-04  5423   0.334E-02    0.171E-01
RMM:   3    -0.945068112799E+02    0.41367E-03   -0.66000E-05  4385   0.245E-02    0.184E-02
RMM:   4    -0.945068823846E+02   -0.71105E-04   -0.25609E-05  3631   0.135E-02    0.997E-03
RMM:   5    -0.945068861407E+02   -0.37561E-05   -0.62654E-06  3094   0.748E-03
  53 F= -.97621366E+02 E0= -.97609806E+02  d E =-.248403E-03
       N       E                     dE             d eps       ncg     rms          rms(c)
DAV:   1    -0.945074374302E+02   -0.55505E-03   -0.23497E-02  5536   0.375E-01    0.976E-02
RMM:   2    -0.945110539464E+02   -0.36165E-02   -0.19699E-03  5855   0.997E-02    0.564E-01
RMM:   3    -0.945070362461E+02    0.40177E-02   -0.70574E-04  6320   0.732E-02    0.556E-02
RMM:   4    -0.945074026697E+02   -0.36642E-03   -0.23424E-04  4740   0.332E-02    0.282E-02
RMM:   5    -0.945074252080E+02   -0.22538E-04   -0.43919E-05  4491   0.180E-02    0.163E-02
RMM:   6    -0.945074237319E+02    0.14761E-05   -0.15585E-05  3864   0.984E-03
  54 F= -.97621883E+02 E0= -.97610383E+02  d E =-.765099E-03
       N       E                     dE             d eps       ncg     rms          rms(c)
DAV:   1    -0.945075657547E+02   -0.14055E-03   -0.93963E-02  5520   0.752E-01    0.196E-01
RMM:   2    -0.945221121478E+02   -0.14546E-01   -0.80744E-03  6004   0.196E-01    0.114E+00
RMM:   3    -0.945062741260E+02    0.15838E-01   -0.27948E-03  6842   0.142E-01    0.110E-01
RMM:   4    -0.945074426863E+02   -0.11686E-02   -0.91450E-04  5990   0.607E-02    0.553E-02
RMM:   5    -0.945075140496E+02   -0.71363E-04   -0.15387E-04  4960   0.306E-02    0.333E-02
RMM:   6    -0.945075057199E+02    0.83297E-05   -0.53817E-05  4833   0.167E-02
  55 F= -.97621924E+02 E0= -.97610531E+02  d E =-.806236E-03
       N       E                     dE             d eps       ncg     rms          rms(c)
DAV:   1    -0.945076407008E+02   -0.12665E-03   -0.19890E-02  5696   0.346E-01    0.857E-02
RMM:   2    -0.945101847235E+02   -0.25440E-02   -0.15236E-03  5807   0.896E-02    0.460E-01
RMM:   3    -0.945073271253E+02    0.28576E-02   -0.47979E-04  6130   0.630E-02    0.492E-02
RMM:   4    -0.945076219512E+02   -0.29483E-03   -0.17806E-04  4419   0.295E-02    0.261E-02
RMM:   5    -0.945076341266E+02   -0.12175E-04   -0.34804E-05  4168   0.160E-02    0.119E-02
RMM:   6    -0.945076358427E+02   -0.17161E-05   -0.11448E-05  3527   0.913E-03
  56 F= -.97622073E+02 E0= -.97610612E+02  d E =-.954950E-03
       N       E                     dE             d eps       ncg     rms          rms(c)
DAV:   1    -0.945078642340E+02   -0.23011E-03   -0.38472E-03  5840   0.154E-01    0.331E-02
RMM:   2    -0.945082489686E+02   -0.38473E-03   -0.20162E-04  5676   0.389E-02    0.180E-01
RMM:   3    -0.945078006529E+02    0.44832E-03   -0.85968E-05  4726   0.279E-02    0.152E-02
RMM:   4    -0.945078637364E+02   -0.63084E-04   -0.27146E-05  3752   0.152E-02    0.715E-03
RMM:   5    -0.945078663705E+02   -0.26341E-05   -0.47409E-06  2994   0.726E-03
  57 F= -.97622293E+02 E0= -.97610854E+02  d E =-.219950E-03
       N       E                     dE             d eps       ncg     rms          rms(c)
DAV:   1    -0.945083421933E+02   -0.47846E-03   -0.35087E-02  5816   0.461E-01    0.926E-02
RMM:   2    -0.945115030226E+02   -0.31608E-02   -0.17432E-03  5883   0.116E-01    0.509E-01
RMM:   3    -0.945079810669E+02    0.35220E-02   -0.74461E-04  6634   0.802E-02    0.436E-02
RMM:   4    -0.945083458260E+02   -0.36476E-03   -0.21366E-04  5360   0.341E-02    0.214E-02
RMM:   5    -0.945083618629E+02   -0.16037E-04   -0.31953E-05  4467   0.166E-02    0.138E-02
RMM:   6    -0.945083637878E+02   -0.19249E-05   -0.12154E-05  3458   0.890E-03
  58 F= -.97622759E+02 E0= -.97611366E+02  d E =-.686189E-03
       N       E                     dE             d eps       ncg     rms          rms(c)
DAV:   1    -0.945084018321E+02   -0.39969E-04   -0.14020E-01  5832   0.922E-01    0.184E-01
RMM:   2    -0.945206957168E+02   -0.12294E-01   -0.68260E-03  6103   0.231E-01    0.983E-01
RMM:   3    -0.945072051149E+02    0.13491E-01   -0.28842E-03  6939   0.156E-01    0.849E-02
RMM:   4    -0.945084378872E+02   -0.12328E-02   -0.79520E-04  6668   0.646E-02    0.416E-02
RMM:   5    -0.945084821109E+02   -0.44224E-04   -0.12505E-04  5664   0.297E-02    0.270E-02
RMM:   6    -0.945084870669E+02   -0.49560E-05   -0.41381E-05  4583   0.151E-02
  59 F= -.97622821E+02 E0= -.97611523E+02  d E =-.748539E-03
       N       E                     dE             d eps       ncg     rms          rms(c)
DAV:   1    -0.945085516285E+02   -0.69518E-04   -0.28265E-02  5712   0.415E-01    0.826E-02
RMM:   2    -0.945110048850E+02   -0.24533E-02   -0.14506E-03  5856   0.104E-01    0.463E-01
RMM:   3    -0.945082796548E+02    0.27252E-02   -0.60331E-04  6338   0.729E-02    0.383E-02
RMM:   4    -0.945085641731E+02   -0.28452E-03   -0.16873E-04  4873   0.318E-02    0.186E-02
RMM:   5    -0.945085764128E+02   -0.12240E-04   -0.25411E-05  3984   0.157E-02    0.104E-02
RMM:   6    -0.945085793149E+02   -0.29021E-05   -0.72323E-06  3212   0.802E-03
  60 F= -.97622941E+02 E0= -.97611607E+02  d E =-.867873E-03
       N       E                     dE             d eps       ncg     rms          rms(c)
DAV:   1    -0.945089230527E+02   -0.34664E-03   -0.15360E-02  5824   0.300E-01    0.362E-02
RMM:   2    -0.945089672626E+02   -0.44210E-04   -0.37557E-04  5769   0.707E-02    0.333E-02
RMM:   3    -0.945090128732E+02   -0.45611E-04   -0.14831E-04  6416   0.401E-02    0.635E-02
RMM:   4    -0.945089637794E+02    0.49094E-04   -0.25821E-05  3924   0.200E-02    0.117E-02
RMM:   5    -0.945089727188E+02   -0.89394E-05   -0.95121E-06  3257   0.103E-02
  61 F= -.97623300E+02 E0= -.97611999E+02  d E =-.359399E-03
       N       E                     dE             d eps       ncg     rms          rms(c)
DAV:   1    -0.945095187902E+02   -0.55501E-03   -0.13918E-01  5696   0.903E-01    0.110E-01
RMM:   2    -0.945099923810E+02   -0.47359E-03   -0.34149E-03  6053   0.213E-01    0.126E-01
RMM:   3    -0.945102063126E+02   -0.21393E-03   -0.13683E-03  7528   0.121E-01    0.165E-01
RMM:   4    -0.945099158362E+02    0.29048E-03   -0.17693E-04  6771   0.457E-02    0.382E-02
RMM:   5    -0.945099681247E+02   -0.52289E-04   -0.54350E-05  5322   0.208E-02    0.307E-02
RMM:   6    -0.945099612719E+02    0.68528E-05   -0.23678E-05  3892   0.127E-02
  62 F= -.97624184E+02 E0= -.97612964E+02  d E =-.124286E-02
       N       E                     dE             d eps       ncg     rms          rms(c)
DAV:   1    -0.945093555781E+02    0.61255E-03   -0.55639E-01  5712   0.180E+00    0.218E-01
RMM:   2    -0.945110356231E+02   -0.16800E-02   -0.13539E-02  6184   0.424E-01    0.218E-01
RMM:   3    -0.945123802436E+02   -0.13446E-02   -0.54908E-03  7602   0.239E-01    0.359E-01
RMM:   4    -0.945109493555E+02    0.14309E-02   -0.71312E-04  7342   0.900E-02    0.739E-02
RMM:   5    -0.945111394927E+02   -0.19014E-03   -0.20947E-04  7159   0.396E-02    0.612E-02
RMM:   6    -0.945111181176E+02    0.21375E-04   -0.67735E-05  5644   0.216E-02    0.338E-02
RMM:   7    -0.945111185634E+02   -0.44575E-06   -0.38161E-05  4584   0.147E-02
  63 F= -.97625148E+02 E0= -.97614145E+02  d E =-.220668E-02
       N       E                     dE             d eps       ncg     rms          rms(c)
DAV:   1    -0.945110505002E+02    0.67617E-04   -0.68575E-02  6152   0.633E-01    0.756E-02
RMM:   2    -0.945112455978E+02   -0.19510E-03   -0.17146E-03  6017   0.150E-01    0.686E-02
RMM:   3    -0.945114565699E+02   -0.21097E-03   -0.70414E-04  7490   0.854E-02    0.133E-01
RMM:   4    -0.945112404947E+02    0.21608E-03   -0.10392E-04  6312   0.341E-02    0.271E-02
RMM:   5    -0.945112767684E+02   -0.36274E-04   -0.37608E-05  4664   0.171E-02    0.230E-02
RMM:   6    -0.945112755258E+02    0.12427E-05   -0.16003E-05  3577   0.105E-02
  64 F= -.97625238E+02 E0= -.97614291E+02  d E =-.229727E-02
       N       E                     dE             d eps       ncg     rms          rms(c)
DAV:   1    -0.945116646561E+02   -0.38789E-03   -0.33220E-02  5552   0.453E-01    0.169E-01
RMM:   2    -0.945226783497E+02   -0.11014E-01   -0.45798E-03  6158   0.125E-01    0.938E-01
RMM:   3    -0.945103520358E+02    0.12326E-01   -0.19954E-03  6693   0.966E-02    0.830E-02
RMM:   4    -0.945114419810E+02   -0.10899E-02   -0.51758E-04  5165   0.478E-02    0.384E-02
RMM:   5    -0.945114877399E+02   -0.45759E-04   -0.13039E-04  4893   0.250E-02    0.187E-02
RMM:   6    -0.945114922789E+02   -0.45390E-05   -0.28140E-05  4269   0.122E-02
  65 F= -.97625334E+02 E0= -.97614397E+02  d E =-.955870E-04
       N       E                     dE             d eps       ncg     rms          rms(c)
DAV:   1    -0.945114884989E+02   -0.75898E-06   -0.16459E-03  6072   0.101E-01    0.351E-02
RMM:   2    -0.945119614073E+02   -0.47291E-03   -0.21181E-04  4942   0.277E-02    0.202E-01
RMM:   3    -0.945113891979E+02    0.57221E-03   -0.79326E-05  4247   0.227E-02    0.174E-02
RMM:   4    -0.945114786824E+02   -0.89484E-04   -0.34260E-05  3712   0.130E-02    0.773E-03
RMM:   5    -0.945114830472E+02   -0.43648E-05   -0.72612E-06  3153   0.723E-03
  66 F= -.97625351E+02 E0= -.97614426E+02  d E =-.113167E-03
       N       E                     dE             d eps       ncg     rms          rms(c)
[...]
DAV:   1    -0.957070907745E+02    0.54280E-02   -0.20535E+00  5760   0.329E+00    0.435E-01
RMM:   2    -0.957128259606E+02   -0.57352E-02   -0.69757E-02  6664   0.693E-01    0.242E-01
RMM:   3    -0.957148974344E+02   -0.20715E-02   -0.15848E-02  8538   0.353E-01    0.274E-01
RMM:   4    -0.957136670652E+02    0.12304E-02   -0.21439E-03  8179   0.133E-01    0.156E-01
RMM:   5    -0.957137356620E+02   -0.68597E-04   -0.76159E-04  8004   0.661E-02    0.119E-01
RMM:   6    -0.957137483478E+02   -0.12686E-04   -0.39437E-04  6972   0.421E-02    0.593E-02
RMM:   7    -0.957137505191E+02   -0.21713E-05   -0.17383E-04  6517   0.292E-02    0.107E-02
RMM:   8    -0.957137640507E+02   -0.13532E-04   -0.10312E-04  5707   0.189E-02    0.708E-03
RMM:   9    -0.957137696491E+02   -0.55984E-05   -0.51870E-05  4759   0.131E-02
 143 F= -.98781358E+02 E0= -.98786542E+02  d E =-.460616E-02
       N       E                     dE             d eps       ncg     rms          rms(c)
DAV:   1    -0.956849885930E+02    0.28775E-01   -0.82205E+00  5760   0.662E+00    0.862E-01
RMM:   2    -0.957088472219E+02   -0.23859E-01   -0.28188E-01  6642   0.140E+00    0.497E-01
RMM:   3    -0.957170254957E+02   -0.81783E-02   -0.64430E-02  8705   0.732E-01    0.567E-01
RMM:   4    -0.957116822491E+02    0.53432E-02   -0.88396E-03  8404   0.272E-01    0.309E-01
RMM:   5    -0.957119267595E+02   -0.24451E-03   -0.28872E-03  8601   0.132E-01    0.225E-01
RMM:   6    -0.957119743009E+02   -0.47541E-04   -0.15786E-03  8021   0.834E-02    0.122E-01
RMM:   7    -0.957119241871E+02    0.50114E-04   -0.63037E-04  7305   0.575E-02    0.205E-02
RMM:   8    -0.957119768446E+02   -0.52658E-04   -0.38615E-04  6946   0.364E-02    0.154E-02
RMM:   9    -0.957119968639E+02   -0.20019E-04   -0.17809E-04  6235   0.242E-02    0.116E-02
RMM:  10    -0.957120096745E+02   -0.12811E-04   -0.10304E-04  5645   0.181E-02    0.765E-03
RMM:  11    -0.957120190413E+02   -0.93668E-05   -0.62117E-05  5151   0.143E-02
 144 F= -.98783631E+02 E0= -.98788393E+02  d E =-.687967E-02
       N       E                     dE             d eps       ncg     rms          rms(c)
DAV:   1    -0.957071806539E+02    0.48290E-02   -0.12535E+00  5976   0.251E+00    0.377E-01
RMM:   2    -0.957121624736E+02   -0.49818E-02   -0.44369E-02  6445   0.515E-01    0.304E-01
RMM:   3    -0.957120680040E+02    0.94470E-04   -0.96753E-03  8334   0.260E-01    0.239E-01
RMM:   4    -0.957111214764E+02    0.94653E-03   -0.13681E-03  8044   0.104E-01    0.125E-01
RMM:   5    -0.957111414398E+02   -0.19963E-04   -0.48334E-04  7512   0.510E-02    0.928E-02
RMM:   6    -0.957111356528E+02    0.57869E-05   -0.28579E-04  6563   0.345E-02    0.344E-02
RMM:   7    -0.957111464748E+02   -0.10822E-04   -0.13161E-04  5963   0.225E-02    0.859E-03
RMM:   8    -0.957111561686E+02   -0.96939E-05   -0.70474E-05  4887   0.150E-02
 145 F= -.98784304E+02 E0= -.98789020E+02  d E =-.672609E-03
       N       E                     dE             d eps       ncg     rms          rms(c)
DAV:   1    -0.957114907606E+02   -0.34429E-03   -0.14723E-01  6144   0.849E-01    0.124E-01
RMM:   2    -0.957119973079E+02   -0.50655E-03   -0.47724E-03  6236   0.174E-01    0.988E-02
RMM:   3    -0.957120333589E+02   -0.36051E-04   -0.11054E-03  7729   0.875E-02    0.819E-02
RMM:   4    -0.957119149191E+02    0.11844E-03   -0.14448E-04  6313   0.350E-02    0.432E-02
RMM:   5    -0.957119161443E+02   -0.12252E-05   -0.41027E-05  5093   0.171E-02
 146 F= -.98784537E+02 E0= -.98789279E+02  d E =-.905496E-03
       N       E                     dE             d eps       ncg     rms          rms(c)
DAV:   1    -0.957103987828E+02    0.15161E-02   -0.69143E-01  5440   0.194E+00    0.293E-01
RMM:   2    -0.957119481989E+02   -0.15494E-02   -0.18749E-02  6432   0.389E-01    0.139E-01
RMM:   3    -0.957123462601E+02   -0.39806E-03   -0.41144E-03  8277   0.193E-01    0.833E-02
RMM:   4    -0.957124718341E+02   -0.12557E-03   -0.65654E-04  8017   0.737E-02    0.819E-02
RMM:   5    -0.957123682277E+02    0.10361E-03   -0.20455E-04  7124   0.376E-02    0.478E-02
RMM:   6    -0.957123724553E+02   -0.42276E-05   -0.12989E-04  6121   0.234E-02    0.302E-02
RMM:   7    -0.957123712467E+02    0.12085E-05   -0.50700E-05  5196   0.154E-02
 147 F= -.98786186E+02 E0= -.98790842E+02  d E =-.164930E-02
       N       E                     dE             d eps       ncg     rms          rms(c)
DAV:   1    -0.957094393842E+02    0.29331E-02   -0.79747E-01  5440   0.209E+00    0.314E-01
RMM:   2    -0.957112553214E+02   -0.18159E-02   -0.22064E-02  6597   0.422E-01    0.149E-01
RMM:   3    -0.957116920012E+02   -0.43668E-03   -0.47953E-03  8388   0.206E-01    0.876E-02
RMM:   4    -0.957117951039E+02   -0.10310E-03   -0.80428E-04  8127   0.802E-02    0.682E-02
RMM:   5    -0.957118002711E+02   -0.51672E-05   -0.25633E-04  7395   0.407E-02    0.595E-02
RMM:   6    -0.957117691222E+02    0.31149E-04   -0.17582E-04  6446   0.266E-02    0.348E-02
RMM:   7    -0.957117703782E+02   -0.12560E-05   -0.71096E-05  5675   0.183E-02
 148 F= -.98786875E+02 E0= -.98791445E+02  d E =-.233876E-02
       N       E                     dE             d eps       ncg     rms          rms(c)
DAV:   1    -0.957099881130E+02    0.17810E-02   -0.70292E-01  5488   0.203E+00    0.253E-01
RMM:   2    -0.957116842682E+02   -0.16962E-02   -0.20445E-02  6439   0.418E-01    0.129E-01
RMM:   3    -0.957124970139E+02   -0.81275E-03   -0.51389E-03  8314   0.217E-01    0.147E-01
RMM:   4    -0.957120905513E+02    0.40646E-03   -0.78031E-04  8140   0.828E-02    0.866E-02
RMM:   5    -0.957121124724E+02   -0.21921E-04   -0.25202E-04  7258   0.405E-02    0.598E-02
RMM:   6    -0.957121261332E+02   -0.13661E-04   -0.14116E-04  6240   0.259E-02    0.369E-02
RMM:   7    -0.957121239944E+02    0.21388E-05   -0.68221E-05  5478   0.183E-02
 149 F= -.98788404E+02 E0= -.98792949E+02  d E =-.152880E-02
       N       E                     dE             d eps       ncg     rms          rms(c)
DAV:   1    -0.957108234009E+02    0.13027E-02   -0.32103E-01  5760   0.137E+00    0.169E-01
RMM:   2    -0.957115730345E+02   -0.74963E-03   -0.91393E-03  6371   0.282E-01    0.866E-02
RMM:   3    -0.957119353555E+02   -0.36232E-03   -0.23375E-03  8172   0.146E-01    0.973E-02
RMM:   4    -0.957117632584E+02    0.17210E-03   -0.37457E-04  7720   0.569E-02    0.576E-02
RMM:   5    -0.957117714638E+02   -0.82054E-05   -0.12769E-04  6470   0.285E-02    0.397E-02
RMM:   6    -0.957117793914E+02   -0.79276E-05   -0.73919E-05  5357   0.184E-02
 150 F= -.98788857E+02 E0= -.98793388E+02  d E =-.198174E-02
       N       E                     dE             d eps       ncg     rms          rms(c)
DAV:   1    -0.957113432179E+02    0.42825E-03   -0.52113E-02  6032   0.553E-01    0.710E-02
RMM:   2    -0.957114684332E+02   -0.12522E-03   -0.15152E-03  6301   0.116E-01    0.372E-02
RMM:   3    -0.957115365771E+02   -0.68144E-04   -0.39676E-04  7728   0.601E-02    0.433E-02
RMM:   4    -0.957114992832E+02    0.37294E-04   -0.74865E-05  6050   0.253E-02    0.230E-02
RMM:   5    -0.957115023411E+02   -0.30579E-05   -0.33331E-05  4311   0.141E-02
 151 F= -.98788903E+02 E0= -.98793416E+02  d E =-.202763E-02
       N       E                     dE             d eps       ncg     rms          rms(c)
DAV:   1    -0.957078553304E+02    0.36440E-02   -0.96339E-01  5440   0.235E+00    0.393E-01
RMM:   2    -0.957098941593E+02   -0.20388E-02   -0.25083E-02  6438   0.488E-01    0.221E-01
RMM:   3    -0.957122475073E+02   -0.23533E-02   -0.80235E-03  8163   0.261E-01    0.281E-01
RMM:   4    -0.957102118736E+02    0.20356E-02   -0.13399E-03  8003   0.108E-01    0.951E-02
RMM:   5    -0.957103222262E+02   -0.11035E-03   -0.52170E-04  7709   0.544E-02    0.712E-02
RMM:   6    -0.957103142405E+02    0.79858E-05   -0.17764E-04  6491   0.317E-02    0.360E-02
RMM:   7    -0.957103169691E+02   -0.27286E-05   -0.91546E-05  5728   0.204E-02
 152 F= -.98789144E+02 E0= -.98793528E+02  d E =-.241435E-03
       N       E                     dE             d eps       ncg     rms          rms(c)
DAV:   1    -0.957107875073E+02   -0.47327E-03   -0.16604E-01  5504   0.983E-01    0.168E-01
RMM:   2    -0.957111842919E+02   -0.39678E-03   -0.45627E-03  5985   0.200E-01    0.968E-02
RMM:   3    -0.957115755643E+02   -0.39127E-03   -0.13505E-03  7664   0.109E-01    0.123E-01
RMM:   4    -0.957112067965E+02    0.36877E-03   -0.22904E-04  6625   0.457E-02    0.385E-02
RMM:   5    -0.957112296386E+02   -0.22842E-04   -0.79558E-05  5526   0.228E-02    0.293E-02
RMM:   6    -0.957112255167E+02    0.41219E-05   -0.23080E-05  4494   0.133E-02
 153 F= -.98789459E+02 E0= -.98793903E+02  d E =-.555830E-03
       N       E                     dE             d eps       ncg     rms          rms(c)
DAV:   1    -0.957109336627E+02    0.29598E-03   -0.11065E-01  5704   0.818E-01    0.838E-02
RMM:   2    -0.957111233694E+02   -0.18971E-03   -0.21577E-03  5826   0.166E-01    0.409E-02
RMM:   3    -0.957112054913E+02   -0.82122E-04   -0.78971E-04  7542   0.919E-02    0.285E-02
RMM:   4    -0.957112150334E+02   -0.95420E-05   -0.10338E-04  6381   0.324E-02    0.292E-02
RMM:   5    -0.957112093982E+02    0.56352E-05   -0.27535E-05  4254   0.171E-02
 154 F= -.98789878E+02 E0= -.98794321E+02  d E =-.418864E-03
       N       E                     dE             d eps       ncg     rms          rms(c)
DAV:   1    -0.957091390928E+02    0.20759E-02   -0.66793E-01  5448   0.201E+00    0.206E-01
RMM:   2    -0.957102835641E+02   -0.11445E-02   -0.13052E-02  6037   0.413E-01    0.103E-01
RMM:   3    -0.957107666369E+02   -0.48307E-03   -0.49267E-03  7879   0.229E-01    0.698E-02
RMM:   4    -0.957108122476E+02   -0.45611E-04   -0.64256E-04  7416   0.783E-02    0.642E-02
RMM:   5    -0.957108298967E+02   -0.17649E-04   -0.17529E-04  6703   0.348E-02    0.537E-02
RMM:   6    -0.957108462718E+02   -0.16375E-04   -0.63682E-05  5312   0.192E-02    0.398E-02
RMM:   7    -0.957108331083E+02    0.13164E-04   -0.49219E-05  4908   0.166E-02    0.237E-02
RMM:   8    -0.957108323505E+02    0.75782E-06   -0.20109E-05  3899   0.103E-02
 155 F= -.98790571E+02 E0= -.98795020E+02  d E =-.111175E-02
       N       E                     dE             d eps       ncg     rms          rms(c)
DAV:   1    -0.957017584739E+02    0.90746E-02   -0.26710E+00  5448   0.402E+00    0.407E-01
RMM:   2    -0.957064273374E+02   -0.46689E-02   -0.52954E-02  6137   0.836E-01    0.200E-01
RMM:   3    -0.957083658868E+02   -0.19385E-02   -0.19986E-02  8047   0.463E-01    0.132E-01
RMM:   4    -0.957086737642E+02   -0.30788E-03   -0.26240E-03  7893   0.158E-01    0.132E-01
RMM:   5    -0.957086032795E+02    0.70485E-04   -0.54042E-04  7874   0.637E-02    0.114E-01
RMM:   6    -0.957086306892E+02   -0.27410E-04   -0.33125E-04  6322   0.380E-02    0.670E-02
RMM:   7    -0.957086381700E+02   -0.74808E-05   -0.16159E-04  5800   0.294E-02    0.532E-02
RMM:   8    -0.957086340741E+02    0.40958E-05   -0.66019E-05  5062   0.178E-02
 156 F= -.98790523E+02 E0= -.98794979E+02  d E =-.106440E-02
       N       E                     dE             d eps       ncg     rms          rms(c)
DAV:   1    -0.957079029337E+02    0.73524E-03   -0.90593E-01  5448   0.235E+00    0.237E-01
RMM:   2    -0.957094410906E+02   -0.15382E-02   -0.17338E-02  6008   0.478E-01    0.118E-01
RMM:   3    -0.957101273497E+02   -0.68626E-03   -0.65675E-03  7910   0.267E-01    0.833E-02
RMM:   4    -0.957101966581E+02   -0.69308E-04   -0.84244E-04  7512   0.890E-02    0.848E-02
RMM:   5    -0.957101432848E+02    0.53373E-04   -0.15879E-04  6980   0.374E-02    0.637E-02
RMM:   6    -0.957101604518E+02   -0.17167E-04   -0.95047E-05  5517   0.224E-02    0.348E-02
RMM:   7    -0.957101563042E+02    0.41475E-05   -0.46660E-05  4857   0.163E-02
 157 F= -.98790789E+02 E0= -.98795248E+02  d E =-.133049E-02
       N       E                     dE             d eps       ncg     rms          rms(c)
DAV:   1    -0.957093821847E+02    0.77827E-03   -0.26467E-01  5680   0.127E+00    0.126E-01
RMM:   2    -0.957099375176E+02   -0.55533E-03   -0.63982E-03  6089   0.270E-01    0.620E-02
RMM:   3    -0.957102762657E+02   -0.33875E-03   -0.21842E-03  7904   0.148E-01    0.802E-02
RMM:   4    -0.957101293199E+02    0.14695E-03   -0.29383E-04  7332   0.525E-02    0.458E-02
RMM:   5    -0.957101375684E+02   -0.82485E-05   -0.72092E-05  6367   0.251E-02
 158 F= -.98791366E+02 E0= -.98795796E+02  d E =-.576401E-03
       N       E                     dE             d eps       ncg     rms          rms(c)
DAV:   1    -0.957098363527E+02    0.29297E-03   -0.49852E-02  6176   0.554E-01    0.674E-02
RMM:   2    -0.957099395221E+02   -0.10317E-03   -0.12952E-03  6111   0.121E-01    0.303E-02
RMM:   3    -0.957100095434E+02   -0.70021E-04   -0.44694E-04  7652   0.670E-02    0.333E-02
RMM:   4    -0.957099845333E+02    0.25010E-04   -0.84490E-05  6346   0.264E-02    0.190E-02
RMM:   5    -0.957099863119E+02   -0.17787E-05   -0.29389E-05  4236   0.142E-02
 159 F= -.98791474E+02 E0= -.98795895E+02  d E =-.684673E-03
       N       E                     dE             d eps       ncg     rms          rms(c)
DAV:   1    -0.957100037124E+02   -0.19179E-04   -0.21599E-02  6176   0.364E-01    0.429E-02
RMM:   2    -0.957100595125E+02   -0.55800E-04   -0.61348E-04  5978   0.800E-02    0.255E-02
RMM:   3    -0.957100852418E+02   -0.25729E-04   -0.20368E-04  7218   0.442E-02    0.276E-02
RMM:   4    -0.957100724779E+02    0.12764E-04   -0.35343E-05  4709   0.186E-02    0.150E-02
RMM:   5    -0.957100733984E+02   -0.92052E-06   -0.14349E-05  3347   0.104E-02
 160 F= -.98791720E+02 E0= -.98796150E+02  d E =-.246217E-03
       N       E                     dE             d eps       ncg     rms          rms(c)
DAV:   1    -0.957095365090E+02    0.53597E-03   -0.19432E-01  5776   0.109E+00    0.126E-01
RMM:   2    -0.957100317572E+02   -0.49525E-03   -0.53870E-03  6078   0.236E-01    0.727E-02
RMM:   3    -0.957102804367E+02   -0.24868E-03   -0.17679E-03  7954   0.131E-01    0.837E-02
RMM:   4    -0.957101486249E+02    0.13181E-03   -0.22562E-04  7229   0.474E-02    0.443E-02
RMM:   5    -0.957101563234E+02   -0.76985E-05   -0.71649E-05  6102   0.232E-02
 161 F= -.98792282E+02 E0= -.98796733E+02  d E =-.808349E-03
       N       E                     dE             d eps       ncg     rms          rms(c)
DAV:   1    -0.957071259772E+02    0.30226E-02   -0.77705E-01  5776   0.219E+00    0.251E-01
RMM:   2    -0.957091205838E+02   -0.19946E-02   -0.21301E-02  6244   0.473E-01    0.153E-01
RMM:   3    -0.957100608483E+02   -0.94026E-03   -0.70608E-03  8138   0.262E-01    0.172E-01
RMM:   4    -0.957095333548E+02    0.52749E-03   -0.91361E-04  7863   0.943E-02    0.902E-02
RMM:   5    -0.957095619503E+02   -0.28595E-04   -0.27156E-04  7421   0.425E-02    0.732E-02
RMM:   6    -0.957095680842E+02   -0.61340E-05   -0.12686E-04  6047   0.251E-02    0.381E-02
RMM:   7    -0.957095729885E+02   -0.49042E-05   -0.70271E-05  5382   0.188E-02
 162 F= -.98792666E+02 E0= -.98797163E+02  d E =-.119160E-02
       N       E                     dE             d eps       ncg     rms          rms(c)
DAV:   1    -0.957096847424E+02   -0.11666E-03   -0.23211E-02  6208   0.377E-01    0.393E-02
RMM:   2    -0.957097375146E+02   -0.52772E-04   -0.56935E-04  5664   0.797E-02    0.230E-02
RMM:   3    -0.957097644711E+02   -0.26957E-04   -0.19161E-04  6599   0.440E-02    0.257E-02
RMM:   4    -0.957097522624E+02    0.12209E-04   -0.28626E-05  3898   0.182E-02    0.138E-02
RMM:   5    -0.957097530293E+02   -0.76686E-06   -0.81395E-06  2940   0.973E-03
 163 F= -.98792677E+02 E0= -.98797173E+02  d E =-.120340E-02
       N       E                     dE             d eps       ncg     rms          rms(c)
DAV:   1    -0.957096687332E+02    0.83529E-04   -0.42625E-03  6424   0.163E-01    0.196E-02
RMM:   2    -0.957096800153E+02   -0.11282E-04   -0.11971E-04  5549   0.346E-02    0.949E-03
RMM:   3    -0.957096860675E+02   -0.60522E-05   -0.39416E-05  4075   0.190E-02
 164 F= -.98792683E+02 E0= -.98797171E+02  d E =-.120860E-02
       N       E                     dE             d eps       ncg     rms          rms(c)
DAV:   1    -0.957097162541E+02   -0.36239E-04   -0.11445E-03  5968   0.909E-02    0.132E-02
RMM:   2    -0.957097218216E+02   -0.55675E-05   -0.43711E-05  4303   0.226E-02
 165 F= -.98792680E+02 E0= -.98797168E+02  d E =-.120626E-02
       N       E                     dE             d eps       ncg     rms          rms(c)
DAV:   1    -0.957096973588E+02    0.18895E-04   -0.41027E-04  6200   0.647E-02    0.811E-03
RMM:   2    -0.957097090780E+02   -0.11719E-04   -0.23627E-05  3670   0.165E-02    0.174E-02
RMM:   3    -0.957096976932E+02    0.11385E-04   -0.64398E-06  2805   0.840E-03    0.275E-03
RMM:   4    -0.957096983612E+02   -0.66797E-06   -0.29154E-06  2525   0.610E-03
 166 F= -.98792680E+02 E0= -.98797176E+02  d E =-.120611E-02
       N       E                     dE             d eps       ncg     rms          rms(c)
DAV:   1    -0.957092300766E+02    0.46762E-03   -0.91532E-02  5784   0.746E-01    0.712E-02
RMM:   2    -0.957094379322E+02   -0.20786E-03   -0.24255E-03  6045   0.160E-01    0.320E-02
RMM:   3    -0.957095130560E+02   -0.75124E-04   -0.76195E-04  7710   0.867E-02    0.265E-02
RMM:   4    -0.957095202756E+02   -0.72196E-05   -0.97993E-05  6582   0.303E-02
 167 F= -.98792854E+02 E0= -.98797334E+02  d E =-.174024E-03
       N       E                     dE             d eps       ncg     rms          rms(c)
DAV:   1    -0.957094692846E+02    0.43771E-04   -0.28590E-03  6432   0.140E-01    0.224E-02
RMM:   2    -0.957094881126E+02   -0.18828E-04   -0.10282E-04  6077   0.346E-02    0.236E-02
RMM:   3    -0.957094813745E+02    0.67380E-05   -0.39870E-05  4308   0.193E-02
 168 F= -.98792877E+02 E0= -.98797369E+02  d E =-.196455E-03
       N       E                     dE             d eps       ncg     rms          rms(c)
DAV:   1    -0.957093595677E+02    0.12854E-03   -0.11141E-02  5896   0.261E-01    0.229E-02
RMM:   2    -0.957093872400E+02   -0.27672E-04   -0.30447E-04  5966   0.574E-02    0.140E-02
RMM:   3    -0.957094005058E+02   -0.13266E-04   -0.10464E-04  6257   0.319E-02    0.175E-02
RMM:   4    -0.957093965079E+02    0.39979E-05   -0.20267E-05  3479   0.132E-02
 169 F= -.98792915E+02 E0= -.98797400E+02  d E =-.234365E-03
       N       E                     dE             d eps       ncg     rms          rms(c)
DAV:   1    -0.957090559371E+02    0.34457E-03   -0.44389E-02  5784   0.519E-01    0.471E-02
RMM:   2    -0.957091578536E+02   -0.10192E-03   -0.11800E-03  6054   0.112E-01    0.239E-02
RMM:   3    -0.957091956785E+02   -0.37825E-04   -0.37317E-04  7600   0.607E-02    0.215E-02
RMM:   4    -0.957092001059E+02   -0.44273E-05   -0.56624E-05  5468   0.221E-02
 170 F= -.98792964E+02 E0= -.98797437E+02  d E =-.283958E-03
       N       E                     dE             d eps       ncg     rms          rms(c)
DAV:   1    -0.957092539874E+02   -0.58309E-04   -0.39577E-03  6272   0.156E-01    0.227E-02
RMM:   2    -0.957092648886E+02   -0.10901E-04   -0.94862E-05  5622   0.362E-02    0.156E-02
RMM:   3    -0.957092734042E+02   -0.85156E-05   -0.47274E-05  4108   0.216E-02
 171 F= -.98793068E+02 E0= -.98797556E+02  d E =-.104111E-03
       N       E                     dE             d eps       ncg     rms          rms(c)
DAV:   1    -0.957093212143E+02   -0.56326E-04   -0.35648E-02  5656   0.458E-01    0.380E-02
RMM:   2    -0.957093897926E+02   -0.68578E-04   -0.70021E-04  5758   0.100E-01    0.203E-02
RMM:   3    -0.957094402732E+02   -0.50481E-04   -0.34252E-04  7245   0.588E-02    0.294E-02
RMM:   4    -0.957094230430E+02    0.17230E-04   -0.47887E-05  4646   0.211E-02    0.173E-02
RMM:   5    -0.957094245242E+02   -0.14812E-05   -0.11617E-05  3166   0.116E-02
 172 F= -.98793312E+02 E0= -.98797779E+02  d E =-.347848E-03
