       N       E                     dE             d eps       ncg     rms          rms(c)
DAV:   1     0.509092379715E+03    0.50909E+03   -0.14450E+04  2000   0.914E+02
DAV:   2     0.553583699025E+02   -0.45373E+03   -0.43783E+03  2296   0.266E+02
DAV:   3    -0.709221517281E+02   -0.12628E+03   -0.12233E+03  3784   0.144E+02
DAV:   4    -0.863995529009E+02   -0.15477E+02   -0.14967E+02  3400   0.649E+01
DAV:   5    -0.881653906219E+02   -0.17658E+01   -0.14581E+01  3600   0.166E+01    0.194E+01
RMM:   6    -0.814043312631E+02    0.67611E+01   -0.19644E+01  2274   0.303E+01    0.976E+00
RMM:   7    -0.851111219425E+02   -0.37068E+01   -0.34290E+01  2757   0.161E+01    0.111E+01
RMM:   8    -0.808225345074E+02    0.42886E+01   -0.74603E+00  2601   0.132E+01    0.515E+00
RMM:   9    -0.797670257186E+02    0.10555E+01   -0.16217E+00  2243   0.912E+00    0.298E+00
RMM:  10    -0.798236270034E+02   -0.56601E-01   -0.27333E+00  2681   0.600E+00    0.220E+00
RMM:  11    -0.796992048170E+02    0.12442E+00   -0.48926E-01  2207   0.537E+00    0.125E+00
RMM:  12    -0.796946921025E+02    0.45127E-02   -0.20692E-01  2680   0.167E+00    0.526E-01
RMM:  13    -0.796966322104E+02   -0.19401E-02   -0.65519E-02  2832   0.708E-01    0.308E-01
RMM:  14    -0.796944041688E+02    0.22280E-02   -0.13194E-02  2688   0.520E-01    0.148E-01
RMM:  15    -0.796935939365E+02    0.81023E-03   -0.53034E-03  2778   0.248E-01    0.773E-02
RMM:  16    -0.796933933683E+02    0.20057E-03   -0.31246E-03  2833   0.171E-01    0.630E-02
RMM:  17    -0.796935318098E+02   -0.13844E-03   -0.17538E-03  2752   0.161E-01    0.425E-02
RMM:  18    -0.796942220157E+02   -0.69021E-03   -0.64527E-04  2563   0.112E-01    0.298E-02
RMM:  19    -0.796950371887E+02   -0.81517E-03   -0.46287E-04  2474   0.758E-02    0.191E-02
RMM:  20    -0.796955908985E+02   -0.55371E-03   -0.13139E-04  1945   0.434E-02    0.111E-02
RMM:  21    -0.796960783150E+02   -0.48742E-03   -0.65751E-05  1732   0.420E-02    0.111E-02
RMM:  22    -0.796962736666E+02   -0.19535E-03   -0.31675E-05  1494   0.317E-02    0.870E-03
RMM:  23    -0.796963170366E+02   -0.43370E-04   -0.11400E-05  1293   0.281E-02    0.286E-03
RMM:  24    -0.796963327934E+02   -0.15757E-04   -0.65714E-06  1251   0.180E-02    0.290E-03
RMM:  25    -0.796963372561E+02   -0.44626E-05   -0.47586E-06  1214   0.185E-02
   1 F= -.82834574E+02 E0= -.82836113E+02  d E =-.828346E+02
       N       E                     dE             d eps       ncg     rms          rms(c)
DAV:   1    -0.521494303015E+02    0.27547E+02   -0.80596E+02  2000   0.125E+02    0.137E+01
RMM:   2    -0.579608549360E+02   -0.58114E+01   -0.86927E+01  3061   0.483E+01    0.918E+00
RMM:   3    -0.583135745308E+02   -0.35272E+00   -0.12968E+01  3085   0.179E+01    0.811E+00
RMM:   4    -0.571628195889E+02    0.11508E+01   -0.28068E+00  2891   0.984E+00    0.659E+00
RMM:   5    -0.563398257716E+02    0.82299E+00   -0.34444E+00  3019   0.819E+00    0.244E+00
RMM:   6    -0.563212136564E+02    0.18612E-01   -0.17122E+00  2974   0.582E+00    0.148E+00
RMM:   7    -0.563601253447E+02   -0.38912E-01   -0.83172E-01  3036   0.309E+00    0.936E-01
RMM:   8    -0.563897986295E+02   -0.29673E-01   -0.53872E-01  3279   0.158E+00    0.807E-01
RMM:   9    -0.563959425313E+02   -0.61439E-02   -0.31742E-01  3173   0.116E+00    0.567E-01
RMM:  10    -0.564095218531E+02   -0.13579E-01   -0.22612E-01  3091   0.884E-01    0.298E-01
RMM:  11    -0.564152658602E+02   -0.57440E-02   -0.13237E-01  3168   0.645E-01    0.154E-01
RMM:  12    -0.564199914202E+02   -0.47256E-02   -0.79759E-02  3163   0.472E-01    0.992E-02
RMM:  13    -0.564272521886E+02   -0.72608E-02   -0.72955E-02  3265   0.362E-01    0.462E-02
RMM:  14    -0.564357629734E+02   -0.85108E-02   -0.75156E-02  3186   0.308E-01    0.740E-02
RMM:  15    -0.564457784486E+02   -0.10015E-01   -0.80626E-02  2953   0.271E-01    0.136E-01
RMM:  16    -0.564511489695E+02   -0.53705E-02   -0.70561E-02  2937   0.261E-01    0.141E-01
RMM:  17    -0.564582389465E+02   -0.70900E-02   -0.74803E-02  2741   0.241E-01    0.165E-01
RMM:  18    -0.564666377179E+02   -0.83988E-02   -0.74657E-02  2450   0.231E-01    0.206E-01
RMM:  19    -0.564675180697E+02   -0.88035E-03   -0.60764E-02  2910   0.234E-01    0.167E-01
RMM:  20    -0.564721369541E+02   -0.46189E-02   -0.63739E-02  2724   0.222E-01    0.169E-01
RMM:  21    -0.564753395016E+02   -0.32025E-02   -0.55215E-02  2650   0.209E-01    0.161E-01
RMM:  22    -0.564782936029E+02   -0.29541E-02   -0.53014E-02  2653   0.204E-01    0.151E-01
RMM:  23    -0.564828122520E+02   -0.45186E-02   -0.49904E-02  2313   0.187E-01    0.165E-01
RMM:  24    -0.564881946865E+02   -0.53824E-02   -0.49724E-02  2060   0.177E-01    0.191E-01
RMM:  25    -0.564880489158E+02    0.14577E-03   -0.39356E-02  2721   0.189E-01    0.160E-01
RMM:  26    -0.564897153129E+02   -0.16664E-02   -0.41479E-02  2587   0.183E-01    0.145E-01
RMM:  27    -0.564916059252E+02   -0.18906E-02   -0.33640E-02  2403   0.161E-01    0.142E-01
RMM:  28    -0.564946234755E+02   -0.30176E-02   -0.35043E-02  2104   0.153E-01    0.150E-01
RMM:  29    -0.564976339360E+02   -0.30105E-02   -0.31468E-02  1946   0.137E-01    0.162E-01
RMM:  30    -0.564990326869E+02   -0.13988E-02   -0.29568E-02  2181   0.136E-01    0.157E-01
RMM:  31    -0.565008837665E+02   -0.18511E-02   -0.27414E-02  2089   0.131E-01    0.159E-01
RMM:  32    -0.565029568868E+02   -0.20731E-02   -0.26053E-02  1965   0.123E-01    0.164E-01
RMM:  33    -0.565053074006E+02   -0.23505E-02   -0.24896E-02  1816   0.119E-01    0.175E-01
RMM:  34    -0.565055414360E+02   -0.23404E-03   -0.21693E-02  2208   0.119E-01    0.163E-01
RMM:  35    -0.565064277296E+02   -0.88629E-03   -0.19937E-02  2084   0.118E-01    0.160E-01
RMM:  36    -0.565064158958E+02    0.11834E-04   -0.16681E-02  2310   0.113E-01    0.147E-01
RMM:  37    -0.565071823225E+02   -0.76643E-03   -0.15079E-02  2061   0.105E-01    0.145E-01
RMM:  38    -0.565082949863E+02   -0.11127E-02   -0.13860E-02  1836   0.952E-02    0.149E-01
RMM:  39    -0.565095943767E+02   -0.12994E-02   -0.13018E-02  1758   0.874E-02    0.157E-01
RMM:  40    -0.565081383588E+02    0.14560E-02   -0.11271E-02  2485   0.102E-01    0.126E-01
RMM:  41    -0.565058190818E+02    0.23193E-02   -0.95540E-03  2978   0.126E-01    0.661E-02
RMM:  42    -0.565064634089E+02   -0.64433E-03   -0.78055E-03  2039   0.851E-02    0.663E-02
RMM:  43    -0.565062347377E+02    0.22867E-03   -0.61723E-03  2518   0.880E-02    0.428E-02
RMM:  44    -0.565067687737E+02   -0.53404E-03   -0.55821E-03  1905   0.780E-02    0.432E-02
RMM:  45    -0.565070444150E+02   -0.27564E-03   -0.46052E-03  2056   0.648E-02    0.380E-02
RMM:  46    -0.565074782201E+02   -0.43381E-03   -0.44821E-03  1814   0.652E-02    0.374E-02
RMM:  47    -0.565078135662E+02   -0.33535E-03   -0.37311E-03  1774   0.529E-02    0.359E-02
RMM:  48    -0.565081985147E+02   -0.38495E-03   -0.37980E-03  1708   0.540E-02    0.361E-02
RMM:  49    -0.565085192229E+02   -0.32071E-03   -0.32572E-03  1671   0.416E-02    0.365E-02
RMM:  50    -0.565088039315E+02   -0.28471E-03   -0.32102E-03  1683   0.427E-02    0.352E-02
RMM:  51    -0.565090663285E+02   -0.26240E-03   -0.27836E-03  1664   0.407E-02    0.345E-02
RMM:  52    -0.565094060164E+02   -0.33969E-03   -0.28405E-03  1639   0.390E-02    0.379E-02
RMM:  53    -0.565095431921E+02   -0.13718E-03   -0.24195E-03  1691   0.375E-02    0.314E-02
RMM:  54    -0.565097854683E+02   -0.24228E-03   -0.23588E-03  1636   0.408E-02    0.319E-02
RMM:  55    -0.565100246414E+02   -0.23917E-03   -0.22444E-03  1585   0.303E-02    0.344E-02
RMM:  56    -0.565102331579E+02   -0.20852E-03   -0.21048E-03  1488   0.286E-02    0.357E-02
RMM:  57    -0.565103727751E+02   -0.13962E-03   -0.19747E-03  1529   0.263E-02    0.321E-02
RMM:  58    -0.565104763763E+02   -0.10360E-03   -0.17050E-03  1805   0.330E-02    0.284E-02
RMM:  59    -0.565106588824E+02   -0.18251E-03   -0.17522E-03  1595   0.336E-02    0.300E-02
RMM:  60    -0.565107821848E+02   -0.12330E-03   -0.14608E-03  1639   0.269E-02    0.286E-02
RMM:  61    -0.565109378254E+02   -0.15564E-03   -0.15750E-03  1567   0.310E-02    0.287E-02
RMM:  62    -0.565175011246E+02   -0.65633E-02   -0.45215E-03  2976   0.141E-01    0.177E-01
RMM:  63    -0.565165348097E+02    0.96631E-03   -0.11509E-03  2243   0.721E-02    0.163E-01
RMM:  64    -0.565160631332E+02    0.47168E-03   -0.88054E-04  1883   0.399E-02    0.155E-01
RMM:  65    -0.565142572459E+02    0.18059E-02   -0.81230E-04  2060   0.403E-02    0.122E-01
RMM:  66    -0.565127970250E+02    0.14602E-02   -0.11494E-03  2134   0.493E-02    0.878E-02
RMM:  67    -0.565122343539E+02    0.56267E-03   -0.12939E-03  2179   0.471E-02    0.638E-02
RMM:  68    -0.565123596110E+02   -0.12526E-03   -0.12974E-03  1630   0.386E-02    0.634E-02
RMM:  69    -0.565126607575E+02   -0.30115E-03   -0.15658E-03  1502   0.242E-02    0.678E-02
RMM:  70    -0.565130153995E+02   -0.35464E-03   -0.24785E-03  1448   0.198E-02    0.699E-02
RMM:  71    -0.565139449041E+02   -0.92950E-03   -0.73827E-03  1426   0.179E-02    0.678E-02
RMM:  72    -0.565143285652E+02   -0.38366E-03   -0.19052E-03  1400   0.179E-02    0.727E-02
RMM:  73    -0.565145255185E+02   -0.19695E-03   -0.19745E-03  1340   0.177E-02    0.718E-02
RMM:  74    -0.565146024839E+02   -0.76965E-04   -0.20934E-03  1178   0.137E-02    0.660E-02
RMM:  75    -0.565148614052E+02   -0.25892E-03   -0.19628E-03  1146   0.137E-02    0.673E-02
RMM:  76    -0.565150353807E+02   -0.17398E-03   -0.19370E-03   889   0.109E-02    0.657E-02
RMM:  77    -0.565145966365E+02    0.43874E-03   -0.26888E-03  2306   0.491E-02    0.334E-02
RMM:  78    -0.565148179279E+02   -0.22129E-03   -0.22778E-03  1695   0.489E-02    0.327E-02
RMM:  79    -0.565150287814E+02   -0.21085E-03   -0.21346E-03  1531   0.242E-02    0.315E-02
RMM:  80    -0.565152600212E+02   -0.23124E-03   -0.21096E-03  1668   0.303E-02    0.338E-02
RMM:  81    -0.565154862621E+02   -0.22624E-03   -0.19897E-03  1550   0.289E-02    0.363E-02
RMM:  82    -0.565160515231E+02   -0.56526E-03   -0.26640E-03  2129   0.415E-02    0.620E-02
RMM:  83    -0.565163302180E+02   -0.27869E-03   -0.20723E-03  1659   0.385E-02    0.680E-02
RMM:  84    -0.565165047612E+02   -0.17454E-03   -0.16107E-03  1509   0.232E-02    0.697E-02
RMM:  85    -0.565166940511E+02   -0.18929E-03   -0.15390E-03  1468   0.228E-02    0.728E-02
RMM:  86    -0.565168181563E+02   -0.12411E-03   -0.13348E-03  1448   0.201E-02    0.733E-02
RMM:  87    -0.565170497993E+02   -0.23164E-03   -0.12865E-03  1631   0.272E-02    0.822E-02
RMM:  88    -0.565172495628E+02   -0.19976E-03   -0.11337E-03  1476   0.319E-02    0.868E-02
RMM:  89    -0.565173523875E+02   -0.10282E-03   -0.10036E-03  1435   0.183E-02    0.873E-02
RMM:  90    -0.565173621743E+02   -0.97868E-05   -0.86180E-04  1414   0.192E-02    0.836E-02
RMM:  91    -0.565173887652E+02   -0.26591E-04   -0.76659E-04  1281   0.119E-02    0.815E-02
RMM:  92    -0.565172715238E+02    0.11724E-03   -0.64482E-04  1422   0.160E-02    0.719E-02
RMM:  93    -0.565173088326E+02   -0.37309E-04   -0.58441E-04  1392   0.178E-02    0.705E-02
RMM:  94    -0.565173430631E+02   -0.34231E-04   -0.50604E-04  1211   0.107E-02    0.699E-02
RMM:  95    -0.565173849640E+02   -0.41901E-04   -0.45227E-04  1072   0.111E-02    0.701E-02
RMM:  96    -0.565174239372E+02   -0.38973E-04   -0.39455E-04  1015   0.718E-03    0.708E-02
RMM:  97    -0.565173302949E+02    0.93642E-04   -0.33507E-04  1377   0.118E-02    0.655E-02
RMM:  98    -0.565173321194E+02   -0.18245E-05   -0.29591E-04  1382   0.165E-02    0.640E-02
RMM:  99    -0.565172930550E+02    0.39064E-04   -0.25943E-04  1401   0.136E-02    0.600E-02
RMM: 100    -0.565173123274E+02   -0.19272E-04   -0.22401E-04  1357   0.162E-02
   2 F= -.59685436E+02 E0= -.59685876E+02  d E =0.231491E+02
       N       E                     dE             d eps       ncg     rms          rms(c)
DAV:   1    -0.802478323740E+02   -0.23731E+02   -0.53463E+02  2000   0.776E+01    0.159E+01
RMM:   2    -0.809399478854E+02   -0.69212E+00   -0.30048E+01  2733   0.289E+01    0.906E+00
RMM:   3    -0.854760115939E+02   -0.45361E+01   -0.33425E+01  2800   0.205E+01    0.108E+01
RMM:   4    -0.810831774870E+02    0.43928E+01   -0.46658E+00  2587   0.105E+01    0.721E+00
RMM:   5    -0.804477649098E+02    0.63541E+00   -0.10285E+00  2600   0.524E+00    0.497E+00
RMM:   6    -0.806415524329E+02   -0.19379E+00   -0.12807E+00  2746   0.482E+00    0.359E+00
RMM:   7    -0.803989996266E+02    0.24255E+00   -0.29988E-01  2212   0.415E+00    0.147E+00
RMM:   8    -0.804029912430E+02   -0.39916E-02   -0.37763E-01  2720   0.188E+00    0.769E-01
RMM:   9    -0.803912044506E+02    0.11787E-01   -0.41810E-02  2387   0.116E+00    0.341E-01
RMM:  10    -0.803903873720E+02    0.81708E-03   -0.26290E-02  2648   0.622E-01    0.162E-01
RMM:  11    -0.803914898383E+02   -0.11025E-02   -0.82345E-03  2879   0.302E-01    0.841E-02
RMM:  12    -0.803918704819E+02   -0.38064E-03   -0.28565E-03  2849   0.164E-01    0.486E-02
RMM:  13    -0.803923374429E+02   -0.46696E-03   -0.10703E-03  2718   0.104E-01    0.487E-02
RMM:  14    -0.803936839011E+02   -0.13465E-02   -0.14239E-03  2720   0.138E-01    0.710E-02
RMM:  15    -0.803940032299E+02   -0.31933E-03   -0.44832E-04  2492   0.960E-02    0.198E-02
RMM:  16    -0.803946337714E+02   -0.63054E-03   -0.20966E-04  2189   0.544E-02    0.847E-03
RMM:  17    -0.803948617174E+02   -0.22795E-03   -0.65360E-05  1653   0.356E-02    0.715E-03
RMM:  18    -0.803950407838E+02   -0.17907E-03   -0.33113E-05  1562   0.347E-02    0.655E-03
RMM:  19    -0.803950969494E+02   -0.56166E-04   -0.11807E-05  1372   0.262E-02    0.510E-03
RMM:  20    -0.803951105609E+02   -0.13612E-04   -0.43076E-06  1289   0.191E-02    0.387E-03
RMM:  21    -0.803951169137E+02   -0.63528E-05   -0.26778E-06  1253   0.181E-02
   3 F= -.83535938E+02 E0= -.83537347E+02  d E =-.701363E+00
       N       E                     dE             d eps       ncg     rms          rms(c)
DAV:   1    -0.804754322979E+02   -0.80322E-01   -0.11378E+00  2328   0.433E+00    0.832E-01
RMM:   2    -0.806152791472E+02   -0.13985E+00   -0.21085E-01  2778   0.187E+00    0.288E+00
RMM:   3    -0.804646917668E+02    0.15059E+00   -0.57642E-02  2639   0.113E+00    0.379E-01
RMM:   4    -0.804677663099E+02   -0.30745E-02   -0.12877E-02  2686   0.560E-01    0.221E-01
RMM:   5    -0.804673815017E+02    0.38481E-03   -0.44922E-03  2762   0.258E-01    0.977E-02
RMM:   6    -0.804673857841E+02   -0.42824E-05   -0.10099E-03  2681   0.111E-01    0.497E-02
RMM:   7    -0.804673626694E+02    0.23115E-04   -0.16305E-04  2146   0.600E-02    0.242E-02
RMM:   8    -0.804673702836E+02   -0.76142E-05   -0.77669E-05  1924   0.428E-02
   4 F= -.83608986E+02 E0= -.83610380E+02  d E =-.774411E+00
       N       E                     dE             d eps       ncg     rms          rms(c)
DAV:   1    -0.804883043696E+02   -0.20942E-01   -0.62180E-01  2400   0.318E+00    0.600E-01
RMM:   2    -0.805640709795E+02   -0.75767E-01   -0.11020E-01  2782   0.137E+00    0.215E+00
RMM:   3    -0.804823717982E+02    0.81699E-01   -0.30904E-02  2637   0.832E-01    0.277E-01
RMM:   4    -0.804842384286E+02   -0.18666E-02   -0.69441E-03  2694   0.410E-01    0.165E-01
RMM:   5    -0.804840707549E+02    0.16767E-03   -0.26900E-03  2764   0.198E-01    0.729E-02
RMM:   6    -0.804840816862E+02   -0.10931E-04   -0.58516E-04  2589   0.843E-02    0.397E-02
RMM:   7    -0.804840738708E+02    0.78154E-05   -0.91223E-05  1901   0.501E-02
   5 F= -.83626282E+02 E0= -.83627660E+02  d E =-.791708E+00
       N       E                     dE             d eps       ncg     rms          rms(c)
DAV:   1    -0.741848876592E+02    0.62992E+01   -0.46339E+02  2000   0.856E+01    0.101E+01
RMM:   2    -0.790533767271E+02   -0.48685E+01   -0.14713E+01  2325   0.306E+01    0.124E+01
RMM:   3    -0.730445888095E+02    0.60088E+01   -0.84722E+00  2555   0.174E+01    0.638E+00
RMM:   4    -0.726080153037E+02    0.43657E+00   -0.30929E+00  2594   0.926E+00    0.472E+00
RMM:   5    -0.724679195060E+02    0.14010E+00   -0.88023E-01  2731   0.412E+00    0.401E+00
RMM:   6    -0.725853630744E+02   -0.11744E+00   -0.66515E-01  2890   0.291E+00    0.389E+00
RMM:   7    -0.725021201504E+02    0.83243E-01   -0.22891E-01  2773   0.220E+00    0.249E+00
RMM:   8    -0.724655170977E+02    0.36603E-01   -0.11639E-01  2756   0.147E+00    0.226E+00
RMM:   9    -0.724019046399E+02    0.63612E-01   -0.96935E-02  2852   0.127E+00    0.107E+00
RMM:  10    -0.723921874240E+02    0.97172E-02   -0.26094E-02  2890   0.601E-01    0.171E-01
RMM:  11    -0.723945276973E+02   -0.23403E-02   -0.55226E-03  3093   0.266E-01    0.838E-02
RMM:  12    -0.723955577916E+02   -0.10301E-02   -0.16607E-03  2771   0.165E-01    0.168E-01
RMM:  13    -0.723959023374E+02   -0.34455E-03   -0.79088E-04  2856   0.110E-01    0.492E-02
RMM:  14    -0.723964389353E+02   -0.53660E-03   -0.39297E-04  2487   0.724E-02    0.384E-02
RMM:  15    -0.723968406438E+02   -0.40171E-03   -0.18672E-04  2114   0.580E-02    0.365E-02
RMM:  16    -0.723972833476E+02   -0.44270E-03   -0.26257E-04  2293   0.586E-02    0.129E-02
RMM:  17    -0.723973632057E+02   -0.79858E-04   -0.58426E-05  1750   0.388E-02    0.899E-03
RMM:  18    -0.723974328293E+02   -0.69624E-04   -0.39130E-05  1575   0.330E-02    0.310E-03
RMM:  19    -0.723974500607E+02   -0.17231E-04   -0.16825E-05  1338   0.283E-02    0.326E-03
RMM:  20    -0.723974563594E+02   -0.62988E-05   -0.98551E-06  1230   0.239E-02
   6 F= -.75553441E+02 E0= -.75554202E+02  d E =0.807284E+01
       N       E                     dE             d eps       ncg     rms          rms(c)
DAV:   1    -0.815351152809E+02   -0.91377E+01   -0.31467E+02  2056   0.804E+01    0.991E+00
RMM:   2    -0.864563365282E+02   -0.49212E+01   -0.19909E+01  2640   0.244E+01    0.133E+01
RMM:   3    -0.816624416765E+02    0.47939E+01   -0.46732E+00  2706   0.113E+01    0.484E+00
RMM:   4    -0.809609340024E+02    0.70151E+00   -0.10911E+00  2491   0.660E+00    0.286E+00
RMM:   5    -0.808312148175E+02    0.12972E+00   -0.39122E-01  2434   0.397E+00    0.204E+00
RMM:   6    -0.808052611741E+02    0.25954E-01   -0.44763E-01  2766   0.266E+00    0.114E+00
RMM:   7    -0.807911064227E+02    0.14155E-01   -0.62711E-02  2612   0.125E+00    0.818E-01
RMM:   8    -0.807848723119E+02    0.62341E-02   -0.26823E-02  2850   0.600E-01    0.268E-01
RMM:   9    -0.807855030278E+02   -0.63072E-03   -0.43333E-03  2746   0.302E-01    0.111E-01
RMM:  10    -0.807860804575E+02   -0.57743E-03   -0.19457E-03  2817   0.182E-01    0.676E-02
RMM:  11    -0.807863986306E+02   -0.31817E-03   -0.55145E-04  2599   0.105E-01    0.262E-02
RMM:  12    -0.807869354102E+02   -0.53678E-03   -0.37177E-04  2475   0.671E-02    0.257E-02
RMM:  13    -0.807874720347E+02   -0.53662E-03   -0.20987E-04  2210   0.695E-02    0.115E-02
RMM:  14    -0.807878760568E+02   -0.40402E-03   -0.15385E-04  2047   0.507E-02    0.109E-02
RMM:  15    -0.807880872742E+02   -0.21122E-03   -0.65324E-05  1727   0.378E-02    0.549E-03
RMM:  16    -0.807882933785E+02   -0.20610E-03   -0.89041E-05  1715   0.320E-02    0.566E-03
RMM:  17    -0.807883345624E+02   -0.41184E-04   -0.15801E-05  1369   0.255E-02    0.166E-03
RMM:  18    -0.807883492004E+02   -0.14638E-04   -0.74897E-06  1219   0.169E-02    0.171E-03
RMM:  19    -0.807883615098E+02   -0.12309E-04   -0.54246E-06  1236   0.144E-02    0.159E-03
RMM:  20    -0.807883654474E+02   -0.39376E-05   -0.27258E-06  1200   0.118E-02
   7 F= -.83933548E+02 E0= -.83935086E+02  d E =-.307266E+00
       N       E                     dE             d eps       ncg     rms          rms(c)
DAV:   1    -0.808093687922E+02   -0.21007E-01   -0.73945E-01  2368   0.370E+00    0.481E-01
RMM:   2    -0.808565588539E+02   -0.47190E-01   -0.62619E-02  2779   0.125E+00    0.181E+00
RMM:   3    -0.808047868380E+02    0.51772E-01   -0.17841E-02  2612   0.637E-01    0.222E-01
RMM:   4    -0.808070640107E+02   -0.22772E-02   -0.55918E-03  2729   0.358E-01    0.148E-01
RMM:   5    -0.808065061679E+02    0.55784E-03   -0.17178E-03  2626   0.209E-01    0.613E-02
RMM:   6    -0.808065268170E+02   -0.20649E-04   -0.58753E-04  2624   0.962E-02    0.260E-02
RMM:   7    -0.808065450058E+02   -0.18189E-04   -0.10172E-04  1884   0.420E-02    0.102E-02
RMM:   8    -0.808065502419E+02   -0.52361E-05   -0.19574E-05  1338   0.346E-02
   8 F= -.83951166E+02 E0= -.83952681E+02  d E =-.324883E+00
       N       E                     dE             d eps       ncg     rms          rms(c)
DAV:   1    -0.811528069613E+02   -0.34626E+00   -0.17578E+01  2000   0.169E+01    0.338E+00
RMM:   2    -0.829331850317E+02   -0.17804E+01   -0.31966E+00  2779   0.758E+00    0.977E+00
RMM:   3    -0.810831705758E+02    0.18500E+01   -0.82399E-01  2756   0.402E+00    0.181E+00
RMM:   4    -0.810317607203E+02    0.51410E-01   -0.15067E-01  2598   0.228E+00    0.109E+00
RMM:   5    -0.810280102118E+02    0.37505E-02   -0.63641E-02  2776   0.108E+00    0.573E-01
RMM:   6    -0.810271566774E+02    0.85353E-03   -0.18992E-02  2801   0.628E-01    0.266E-01
RMM:   7    -0.810260804525E+02    0.10762E-02   -0.55917E-03  2566   0.417E-01    0.115E-01
RMM:   8    -0.810259678261E+02    0.11263E-03   -0.21363E-03  2672   0.241E-01    0.438E-02
RMM:   9    -0.810261724583E+02   -0.20463E-03   -0.94263E-04  2804   0.959E-02    0.226E-02
RMM:  10    -0.810263041719E+02   -0.13171E-03   -0.26622E-04  2328   0.719E-02    0.981E-03
RMM:  11    -0.810263744828E+02   -0.70311E-04   -0.10928E-04  1938   0.385E-02    0.709E-03
RMM:  12    -0.810264950212E+02   -0.12054E-03   -0.56754E-05  1656   0.336E-02    0.540E-03
RMM:  13    -0.810265666731E+02   -0.71652E-04   -0.41216E-05  1602   0.302E-02    0.375E-03
RMM:  14    -0.810266138457E+02   -0.47173E-04   -0.24512E-05  1462   0.282E-02    0.346E-03
RMM:  15    -0.810266371896E+02   -0.23344E-04   -0.16918E-05  1421   0.236E-02    0.192E-03
RMM:  16    -0.810266429096E+02   -0.57200E-05   -0.80587E-06  1301   0.210E-02
   9 F= -.84183076E+02 E0= -.84184703E+02  d E =-.231910E+00
       N       E                     dE             d eps       ncg     rms          rms(c)
DAV:   1    -0.810733797269E+02   -0.46743E-01   -0.16115E+00  2064   0.522E+00    0.114E+00
RMM:   2    -0.813074951937E+02   -0.23412E+00   -0.26257E-01  2794   0.226E+00    0.304E+00
RMM:   3    -0.810635934499E+02    0.24390E+00   -0.10477E-01  2667   0.149E+00    0.564E-01
RMM:   4    -0.810646355424E+02   -0.10421E-02   -0.21866E-02  2681   0.754E-01    0.305E-01
RMM:   5    -0.810647096241E+02   -0.74082E-04   -0.69550E-03  2836   0.302E-01    0.226E-01
RMM:   6    -0.810645196679E+02    0.18996E-03   -0.15394E-03  2694   0.194E-01    0.807E-02
RMM:   7    -0.810644976728E+02    0.21995E-04   -0.33526E-04  2343   0.113E-01    0.318E-02
RMM:   8    -0.810645713819E+02   -0.73709E-04   -0.18677E-04  2269   0.535E-02    0.112E-02
RMM:   9    -0.810646139726E+02   -0.42591E-04   -0.40563E-05  1637   0.382E-02    0.750E-03
RMM:  10    -0.810646534159E+02   -0.39443E-04   -0.14425E-05  1357   0.253E-02    0.301E-03
RMM:  11    -0.810646748515E+02   -0.21436E-04   -0.83976E-06  1298   0.209E-02    0.226E-03
RMM:  12    -0.810646984795E+02   -0.23628E-04   -0.91984E-06  1320   0.164E-02    0.219E-03
RMM:  13    -0.810647220619E+02   -0.23582E-04   -0.11791E-05  1369   0.158E-02    0.148E-03
RMM:  14    -0.810647347796E+02   -0.12718E-04   -0.75735E-06  1314   0.147E-02    0.164E-03
RMM:  15    -0.810647438866E+02   -0.91070E-05   -0.76594E-06  1304   0.131E-02
  10 F= -.84217469E+02 E0= -.84219000E+02  d E =-.266304E+00
       N       E                     dE             d eps       ncg     rms          rms(c)
DAV:   1    -0.810714012251E+02   -0.66664E-02   -0.97589E+00  2000   0.135E+01    0.191E+00
RMM:   2    -0.818174677685E+02   -0.74607E+00   -0.10862E+00  2742   0.521E+00    0.489E+00
RMM:   3    -0.810574577454E+02    0.76001E+00   -0.30920E-01  2586   0.281E+00    0.159E+00
RMM:   4    -0.810385238580E+02    0.18934E-01   -0.84493E-02  2702   0.138E+00    0.723E-01
RMM:   5    -0.810404827028E+02   -0.19588E-02   -0.59624E-02  2793   0.800E-01    0.727E-01
RMM:   6    -0.810333588245E+02    0.71239E-02   -0.84769E-03  2738   0.412E-01    0.167E-01
RMM:   7    -0.810338681794E+02   -0.50935E-03   -0.17786E-03  2652   0.222E-01    0.129E-01
RMM:   8    -0.810339112913E+02   -0.43112E-04   -0.57097E-04  2464   0.128E-01    0.604E-02
RMM:   9    -0.810341033874E+02   -0.19210E-03   -0.35299E-04  2525   0.893E-02    0.185E-02
RMM:  10    -0.810341423220E+02   -0.38935E-04   -0.90773E-05  1869   0.360E-02    0.930E-03
RMM:  11    -0.810341856976E+02   -0.43376E-04   -0.20097E-05  1412   0.301E-02    0.443E-03
RMM:  12    -0.810342479967E+02   -0.62299E-04   -0.18809E-05  1357   0.268E-02    0.470E-03
RMM:  13    -0.810343068391E+02   -0.58842E-04   -0.19114E-05  1408   0.256E-02    0.303E-03
RMM:  14    -0.810343415857E+02   -0.34747E-04   -0.12843E-05  1356   0.214E-02    0.194E-03
RMM:  15    -0.810343716589E+02   -0.30073E-04   -0.15541E-05  1389   0.184E-02    0.191E-03
RMM:  16    -0.810343857686E+02   -0.14110E-04   -0.10019E-05  1323   0.174E-02    0.148E-03
RMM:  17    -0.810343897698E+02   -0.40012E-05   -0.55720E-06  1211   0.147E-02
  11 F= -.84190166E+02 E0= -.84191331E+02  d E =0.273035E-01
       N       E                     dE             d eps       ncg     rms          rms(c)
DAV:   1    -0.810910883738E+02   -0.56703E-01   -0.38052E+00  2016   0.873E+00    0.111E+00
RMM:   2    -0.814340218099E+02   -0.34293E+00   -0.43806E-01  2765   0.318E+00    0.519E+00
RMM:   3    -0.810700563262E+02    0.36397E+00   -0.10806E-01  2663   0.159E+00    0.537E-01
RMM:   4    -0.810833900248E+02   -0.13334E-01   -0.27418E-02  2741   0.793E-01    0.310E-01
RMM:   5    -0.810813253089E+02    0.20647E-02   -0.94434E-03  2724   0.452E-01    0.148E-01
RMM:   6    -0.810811307964E+02    0.19451E-03   -0.41749E-03  2770   0.277E-01    0.653E-02
RMM:   7    -0.810811798165E+02   -0.49020E-04   -0.81826E-04  2727   0.123E-01    0.501E-02
RMM:   8    -0.810811791071E+02    0.70940E-06   -0.19459E-04  2252   0.724E-02    0.205E-02
RMM:   9    -0.810812008091E+02   -0.21702E-04   -0.77801E-05  1903   0.441E-02    0.665E-03
RMM:  10    -0.810812134496E+02   -0.12641E-04   -0.15997E-05  1371   0.347E-02    0.447E-03
RMM:  11    -0.810812257867E+02   -0.12337E-04   -0.80373E-06  1232   0.196E-02    0.269E-03
RMM:  12    -0.810812474831E+02   -0.21696E-04   -0.71612E-06  1240   0.189E-02    0.274E-03
RMM:  13    -0.810812666336E+02   -0.19151E-04   -0.68341E-06  1249   0.164E-02    0.163E-03
RMM:  14    -0.810812831908E+02   -0.16557E-04   -0.81450E-06  1284   0.156E-02    0.273E-03
RMM:  15    -0.810812910347E+02   -0.78439E-05   -0.57965E-06  1250   0.139E-02
  12 F= -.84235142E+02 E0= -.84236551E+02  d E =-.176729E-01
       N       E                     dE             d eps       ncg     rms          rms(c)
DAV:   1    -0.811178892439E+02   -0.36606E-01   -0.15285E+00  2000   0.573E+00    0.442E-01
RMM:   2    -0.811516807991E+02   -0.33792E-01   -0.82653E-02  2762   0.172E+00    0.152E+00
RMM:   3    -0.811207438314E+02    0.30937E-01   -0.19621E-02  2778   0.628E-01    0.217E-01
RMM:   4    -0.811222067474E+02   -0.14629E-02   -0.38552E-03  2722   0.324E-01    0.155E-01
RMM:   5    -0.811219292593E+02    0.27749E-03   -0.12487E-03  2620   0.202E-01    0.101E-01
RMM:   6    -0.811218921150E+02    0.37144E-04   -0.49307E-04  2667   0.997E-02    0.335E-02
RMM:   7    -0.811219024177E+02   -0.10303E-04   -0.15454E-04  2168   0.628E-02    0.102E-02
RMM:   8    -0.811219064647E+02   -0.40471E-05   -0.37502E-05  1594   0.422E-02
  13 F= -.84277773E+02 E0= -.84278927E+02  d E =-.426310E-01
       N       E                     dE             d eps       ncg     rms          rms(c)
DAV:   1    -0.811425804946E+02   -0.20678E-01   -0.13740E+01  2000   0.172E+01    0.127E+00
RMM:   2    -0.814211650907E+02   -0.27858E+00   -0.81095E-01  2758   0.533E+00    0.442E+00
RMM:   3    -0.811791097476E+02    0.24206E+00   -0.15267E-01  2779   0.175E+00    0.667E-01
RMM:   4    -0.811883784832E+02   -0.92687E-02   -0.31911E-02  2756   0.919E-01    0.464E-01
RMM:   5    -0.811855302467E+02    0.28482E-02   -0.10315E-02  2643   0.578E-01    0.318E-01
RMM:   6    -0.811849186209E+02    0.61163E-03   -0.44350E-03  2867   0.278E-01    0.114E-01
RMM:   7    -0.811849344751E+02   -0.15854E-04   -0.13672E-03  2865   0.146E-01    0.324E-02
RMM:   8    -0.811849711071E+02   -0.36632E-04   -0.38413E-04  2582   0.877E-02    0.198E-02
RMM:   9    -0.811850065514E+02   -0.35444E-04   -0.13933E-04  2163   0.516E-02    0.101E-02
RMM:  10    -0.811850243134E+02   -0.17762E-04   -0.47837E-05  1641   0.381E-02    0.552E-03
RMM:  11    -0.811850381555E+02   -0.13842E-04   -0.19267E-05  1399   0.309E-02    0.313E-03
RMM:  12    -0.811850576100E+02   -0.19454E-04   -0.11972E-05  1339   0.220E-02    0.232E-03
RMM:  13    -0.811850721996E+02   -0.14590E-04   -0.76023E-06  1285   0.211E-02    0.155E-03
RMM:  14    -0.811850843411E+02   -0.12141E-04   -0.61438E-06  1259   0.167E-02    0.158E-03
RMM:  15    -0.811850946744E+02   -0.10333E-04   -0.58357E-06  1297   0.165E-02    0.118E-03
RMM:  16    -0.811850975036E+02   -0.28292E-05   -0.37308E-06  1221   0.137E-02
  14 F= -.84347547E+02 E0= -.84347684E+02  d E =-.112405E+00
       N       E                     dE             d eps       ncg     rms          rms(c)
DAV:   1    -0.811830761904E+02    0.20185E-02   -0.14173E+00  2112   0.551E+00    0.372E-01
RMM:   2    -0.812029599853E+02   -0.19884E-01   -0.63445E-02  2733   0.164E+00    0.115E+00
RMM:   3    -0.811869175584E+02    0.16042E-01   -0.16371E-02  2796   0.549E-01    0.193E-01
RMM:   4    -0.811877780528E+02   -0.86049E-03   -0.32446E-03  2783   0.285E-01    0.147E-01
RMM:   5    -0.811874883006E+02    0.28975E-03   -0.10685E-03  2588   0.186E-01    0.994E-02
RMM:   6    -0.811874390148E+02    0.49286E-04   -0.41764E-04  2587   0.929E-02    0.327E-02
RMM:   7    -0.811874505304E+02   -0.11516E-04   -0.13940E-04  2094   0.624E-02    0.900E-03
RMM:   8    -0.811874556687E+02   -0.51383E-05   -0.34656E-05  1563   0.418E-02
  15 F= -.84352185E+02 E0= -.84351913E+02  d E =-.117043E+00
       N       E                     dE             d eps       ncg     rms          rms(c)
DAV:   1    -0.812204776578E+02   -0.33027E-01   -0.78917E+00  2000   0.130E+01    0.754E-01
RMM:   2    -0.812651265973E+02   -0.44649E-01   -0.18449E-01  2611   0.316E+00    0.129E+00
RMM:   3    -0.812426326925E+02    0.22494E-01   -0.75658E-02  2758   0.122E+00    0.718E-01
RMM:   4    -0.812385382948E+02    0.40944E-02   -0.11413E-02  2736   0.539E-01    0.244E-01
RMM:   5    -0.812393800452E+02   -0.84175E-03   -0.46988E-03  2769   0.336E-01    0.145E-01
RMM:   6    -0.812385082057E+02    0.87184E-03   -0.16360E-03  2625   0.228E-01    0.609E-02
RMM:   7    -0.812385193207E+02   -0.11115E-04   -0.59066E-04  2641   0.117E-01    0.246E-02
RMM:   8    -0.812385295057E+02   -0.10185E-04   -0.16867E-04  2229   0.624E-02    0.143E-02
RMM:   9    -0.812385352113E+02   -0.57056E-05   -0.45963E-05  1689   0.401E-02
  16 F= -.84404495E+02 E0= -.84403574E+02  d E =-.523102E-01
       N       E                     dE             d eps       ncg     rms          rms(c)
DAV:   1    -0.812421862775E+02   -0.36568E-02   -0.27567E+00  2048   0.766E+00    0.495E-01
RMM:   2    -0.812696296701E+02   -0.27443E-01   -0.65257E-02  2602   0.187E+00    0.115E+00
RMM:   3    -0.812476312216E+02    0.21998E-01   -0.27566E-02  2767   0.784E-01    0.367E-01
RMM:   4    -0.812476212085E+02    0.10013E-04   -0.43743E-03  2732   0.352E-01    0.151E-01
RMM:   5    -0.812478325476E+02   -0.21134E-03   -0.16591E-03  2722   0.214E-01    0.970E-02
RMM:   6    -0.812474889422E+02    0.34361E-03   -0.42830E-04  2452   0.131E-01    0.292E-02
RMM:   7    -0.812475134913E+02   -0.24549E-04   -0.22054E-04  2312   0.710E-02    0.116E-02
RMM:   8    -0.812475197189E+02   -0.62276E-05   -0.54721E-05  1748   0.443E-02
  17 F= -.84414220E+02 E0= -.84412935E+02  d E =-.620352E-01
       N       E                     dE             d eps       ncg     rms          rms(c)
DAV:   1    -0.812794803312E+02   -0.31967E-01   -0.36109E+00  2000   0.866E+00    0.409E-01
RMM:   2    -0.812925139604E+02   -0.13034E-01   -0.10146E-01  2759   0.187E+00    0.801E-01
RMM:   3    -0.812868276436E+02    0.56863E-02   -0.16560E-02  2878   0.516E-01    0.251E-01
RMM:   4    -0.812873721543E+02   -0.54451E-03   -0.41014E-03  2848   0.289E-01    0.251E-01
RMM:   5    -0.812867094223E+02    0.66273E-03   -0.21171E-03  2620   0.248E-01    0.148E-01
RMM:   6    -0.812864938355E+02    0.21559E-03   -0.10642E-03  2625   0.168E-01    0.400E-02
RMM:   7    -0.812865205475E+02   -0.26712E-04   -0.26036E-04  2393   0.656E-02    0.215E-02
RMM:   8    -0.812865291572E+02   -0.86097E-05   -0.71838E-05  1817   0.491E-02
  18 F= -.84453481E+02 E0= -.84451718E+02  d E =-.392607E-01
       N       E                     dE             d eps       ncg     rms          rms(c)
DAV:   1    -0.813217150636E+02   -0.35195E-01   -0.32366E+01  2000   0.257E+01    0.149E+00
RMM:   2    -0.814358767650E+02   -0.11416E+00   -0.79500E-01  2687   0.563E+00    0.171E+00
RMM:   3    -0.814488676457E+02   -0.12991E-01   -0.24810E-01  2810   0.202E+00    0.231E+00
RMM:   4    -0.813900736627E+02    0.58794E-01   -0.39573E-02  2734   0.852E-01    0.688E-01
RMM:   5    -0.813910901759E+02   -0.10165E-02   -0.21153E-02  2886   0.598E-01    0.252E-01
RMM:   6    -0.813920641768E+02   -0.97400E-03   -0.63260E-03  2690   0.388E-01    0.128E-01
RMM:   7    -0.813915944205E+02    0.46976E-03   -0.19017E-03  2740   0.207E-01    0.602E-02
RMM:   8    -0.813916446858E+02   -0.50265E-04   -0.68195E-04  2771   0.932E-02    0.329E-02
RMM:   9    -0.813916704476E+02   -0.25762E-04   -0.22479E-04  2245   0.683E-02    0.150E-02
RMM:  10    -0.813916786393E+02   -0.81917E-05   -0.75121E-05  1760   0.470E-02
  19 F= -.84559222E+02 E0= -.84555780E+02  d E =-.145002E+00
       N       E                     dE             d eps       ncg     rms          rms(c)
DAV:   1    -0.814641337243E+02   -0.72463E-01   -0.12818E+02  2000   0.503E+01    0.402E+00
RMM:   2    -0.827807787019E+02   -0.13166E+01   -0.36201E+00  2643   0.123E+01    0.518E+00
RMM:   3    -0.818042006187E+02    0.97658E+00   -0.16886E+00  2705   0.618E+00    0.238E+00
RMM:   4    -0.817145219355E+02    0.89679E-01   -0.23574E-01  2577   0.270E+00    0.137E+00
RMM:   5    -0.817069429395E+02    0.75790E-02   -0.57055E-02  2715   0.108E+00    0.102E+00
RMM:   6    -0.817042664940E+02    0.26764E-02   -0.29947E-02  2743   0.809E-01    0.641E-01
RMM:   7    -0.817022227347E+02    0.20438E-02   -0.89325E-03  2751   0.405E-01    0.275E-01
RMM:   8    -0.817027692643E+02   -0.54653E-03   -0.34048E-03  2739   0.260E-01    0.204E-01
RMM:   9    -0.817023059909E+02    0.46327E-03   -0.76973E-04  2587   0.136E-01    0.519E-02
RMM:  10    -0.817026280245E+02   -0.32203E-03   -0.42981E-04  2567   0.854E-02    0.954E-02
RMM:  11    -0.817026211231E+02    0.69014E-05   -0.11703E-04  1972   0.542E-02    0.137E-02
RMM:  12    -0.817027222445E+02   -0.10112E-03   -0.44921E-05  1611   0.412E-02    0.117E-02
RMM:  13    -0.817028720937E+02   -0.14985E-03   -0.53666E-05  1593   0.273E-02    0.478E-03
RMM:  14    -0.817029387983E+02   -0.66705E-04   -0.23004E-05  1410   0.267E-02    0.518E-03
RMM:  15    -0.817030156515E+02   -0.76853E-04   -0.41242E-05  1539   0.234E-02    0.592E-03
RMM:  16    -0.817030525280E+02   -0.36876E-04   -0.24910E-05  1457   0.220E-02    0.344E-03
RMM:  17    -0.817030596978E+02   -0.71699E-05   -0.69447E-06  1252   0.151E-02
  20 F= -.84871310E+02 E0= -.84867390E+02  d E =-.457089E+00
       N       E                     dE             d eps       ncg     rms          rms(c)
DAV:   1    -0.791209537346E+02    0.25821E+01   -0.46072E+02  2000   0.962E+01    0.105E+01
RMM:   2    -0.811791129583E+02   -0.20582E+01   -0.27756E+01  2689   0.303E+01    0.338E+00
RMM:   3    -0.815928842305E+02   -0.41377E+00   -0.45915E+00  2932   0.809E+00    0.433E+00
RMM:   4    -0.815745524962E+02    0.18332E-01   -0.84054E-01  2952   0.343E+00    0.408E+00
RMM:   5    -0.815372915128E+02    0.37261E-01   -0.28055E-01  2813   0.216E+00    0.284E+00
RMM:   6    -0.815011609369E+02    0.36131E-01   -0.10806E-01  2533   0.183E+00    0.175E+00
RMM:   7    -0.815059126517E+02   -0.47517E-02   -0.88113E-02  2697   0.133E+00    0.686E-01
RMM:   8    -0.814998768678E+02    0.60358E-02   -0.25776E-02  2389   0.934E-01    0.218E-01
RMM:   9    -0.815016767257E+02   -0.17999E-02   -0.81688E-03  2822   0.359E-01    0.373E-01
RMM:  10    -0.815018672109E+02   -0.19049E-03   -0.10102E-02  2710   0.314E-01    0.249E-01
RMM:  11    -0.815018880187E+02   -0.20808E-04   -0.14062E-03  2740   0.145E-01    0.182E-01
RMM:  12    -0.815020257706E+02   -0.13775E-03   -0.50596E-04  2556   0.992E-02    0.850E-02
RMM:  13    -0.815024708536E+02   -0.44508E-03   -0.61564E-04  2498   0.897E-02    0.484E-02
RMM:  14    -0.815025918316E+02   -0.12098E-03   -0.77294E-05  1783   0.487E-02    0.233E-02
RMM:  15    -0.815029251741E+02   -0.33334E-03   -0.19295E-04  2057   0.469E-02    0.112E-02
RMM:  16    -0.815031167575E+02   -0.19158E-03   -0.68373E-05  1681   0.322E-02    0.770E-03
RMM:  17    -0.815031607441E+02   -0.43987E-04   -0.18560E-05  1381   0.258E-02    0.588E-03
RMM:  18    -0.815032090672E+02   -0.48323E-04   -0.26477E-05  1431   0.218E-02    0.729E-03
RMM:  19    -0.815032182266E+02   -0.91594E-05   -0.67862E-06  1237   0.197E-02
  21 F= -.84675817E+02 E0= -.84672030E+02  d E =-.261596E+00
       N       E                     dE             d eps       ncg     rms          rms(c)
DAV:   1    -0.811203350947E+02    0.38287E+00   -0.26042E+02  2000   0.756E+01    0.654E+00
RMM:   2    -0.857879858914E+02   -0.46677E+01   -0.22534E+01  2725   0.227E+01    0.125E+01
RMM:   3    -0.821749801929E+02    0.36130E+01   -0.23795E+00  2647   0.795E+00    0.374E+00
RMM:   4    -0.820156423969E+02    0.15934E+00   -0.71740E-01  2545   0.517E+00    0.267E+00
RMM:   5    -0.819042691600E+02    0.11137E+00   -0.14586E-01  2447   0.220E+00    0.154E+00
RMM:   6    -0.818940286296E+02    0.10241E-01   -0.12402E-01  2787   0.125E+00    0.108E+00
RMM:   7    -0.818889757715E+02    0.50529E-02   -0.79878E-02  2755   0.108E+00    0.449E-01
RMM:   8    -0.818886621435E+02    0.31363E-03   -0.12038E-02  2773   0.470E-01    0.226E-01
RMM:   9    -0.818890130406E+02   -0.35090E-03   -0.35569E-03  2876   0.220E-01    0.112E-01
RMM:  10    -0.818892727069E+02   -0.25967E-03   -0.96690E-04  2663   0.142E-01    0.659E-02
RMM:  11    -0.818893953383E+02   -0.12263E-03   -0.33070E-04  2436   0.749E-02    0.421E-02
RMM:  12    -0.818895915719E+02   -0.19623E-03   -0.11628E-04  1961   0.594E-02    0.278E-02
RMM:  13    -0.818898096385E+02   -0.21807E-03   -0.85137E-05  1873   0.409E-02    0.897E-03
RMM:  14    -0.818899841382E+02   -0.17450E-03   -0.44952E-05  1578   0.380E-02    0.987E-03
RMM:  15    -0.818901635928E+02   -0.17945E-03   -0.70098E-05  1669   0.292E-02    0.324E-03
RMM:  16    -0.818902274538E+02   -0.63861E-04   -0.25865E-05  1455   0.263E-02    0.233E-03
RMM:  17    -0.818902632368E+02   -0.35783E-04   -0.17136E-05  1375   0.187E-02    0.178E-03
RMM:  18    -0.818902725101E+02   -0.92733E-05   -0.67118E-06  1236   0.177E-02
  22 F= -.85059005E+02 E0= -.85056025E+02  d E =-.644785E+00
       N       E                     dE             d eps       ncg     rms          rms(c)
DAV:   1    -0.815774093941E+02    0.31285E+00   -0.11358E+02  2000   0.488E+01    0.333E+00
RMM:   2    -0.820478276310E+02   -0.47042E+00   -0.35268E+00  2678   0.119E+01    0.401E+00
RMM:   3    -0.820376438219E+02    0.10184E-01   -0.11596E+00  2731   0.462E+00    0.287E+00
RMM:   4    -0.818888449192E+02    0.14880E+00   -0.19685E-01  2606   0.232E+00    0.189E+00
RMM:   5    -0.818640079827E+02    0.24837E-01   -0.39718E-02  2640   0.980E-01    0.166E+00
RMM:   6    -0.818667895105E+02   -0.27815E-02   -0.67006E-02  2736   0.930E-01    0.133E+00
RMM:   7    -0.818473760178E+02    0.19413E-01   -0.21174E-02  2400   0.897E-01    0.252E-01
RMM:   8    -0.818481957588E+02   -0.81974E-03   -0.87401E-03  2716   0.407E-01    0.117E-01
RMM:   9    -0.818485304166E+02   -0.33466E-03   -0.17580E-03  2770   0.172E-01    0.850E-02
RMM:  10    -0.818488989586E+02   -0.36854E-03   -0.69631E-04  2606   0.103E-01    0.295E-02
RMM:  11    -0.818491710610E+02   -0.27210E-03   -0.20823E-04  2199   0.707E-02    0.305E-02
RMM:  12    -0.818493981133E+02   -0.22705E-03   -0.74337E-05  1862   0.416E-02    0.726E-03
RMM:  13    -0.818495912140E+02   -0.19310E-03   -0.54179E-05  1581   0.351E-02    0.858E-03
RMM:  14    -0.818497346594E+02   -0.14345E-03   -0.49082E-05  1548   0.298E-02    0.555E-03
RMM:  15    -0.818498377995E+02   -0.10314E-03   -0.51206E-05  1592   0.290E-02    0.308E-03
RMM:  16    -0.818498545637E+02   -0.16764E-04   -0.10959E-05  1267   0.235E-02    0.246E-03
RMM:  17    -0.818498730633E+02   -0.18500E-04   -0.10529E-05  1289   0.148E-02    0.950E-04
RMM:  18    -0.818498761330E+02   -0.30697E-05   -0.33877E-06  1202   0.138E-02
  23 F= -.85020531E+02 E0= -.85017307E+02  d E =-.606311E+00
       N       E                     dE             d eps       ncg     rms          rms(c)
DAV:   1    -0.818863262486E+02   -0.36453E-01   -0.45491E+01  2000   0.318E+01    0.236E+00
RMM:   2    -0.827134054438E+02   -0.82708E+00   -0.24240E+00  2732   0.765E+00    0.487E+00
RMM:   3    -0.820051924496E+02    0.70821E+00   -0.38675E-01  2649   0.317E+00    0.183E+00
RMM:   4    -0.819529969911E+02    0.52195E-01   -0.98281E-02  2569   0.179E+00    0.108E+00
RMM:   5    -0.819479733021E+02    0.50237E-02   -0.66872E-02  2775   0.847E-01    0.677E-01
RMM:   6    -0.819461742682E+02    0.17990E-02   -0.16985E-02  2689   0.589E-01    0.372E-01
RMM:   7    -0.819450742330E+02    0.11000E-02   -0.43502E-03  2535   0.329E-01    0.156E-01
RMM:   8    -0.819451651783E+02   -0.90945E-04   -0.15013E-03  2738   0.148E-01    0.763E-02
RMM:   9    -0.819453348568E+02   -0.16968E-03   -0.57126E-04  2565   0.108E-01    0.499E-02
RMM:  10    -0.819453617482E+02   -0.26891E-04   -0.15426E-04  2098   0.498E-02    0.196E-02
RMM:  11    -0.819454000054E+02   -0.38257E-04   -0.41154E-05  1600   0.378E-02    0.108E-02
RMM:  12    -0.819454798110E+02   -0.79806E-04   -0.31651E-05  1510   0.310E-02    0.719E-03
RMM:  13    -0.819455212589E+02   -0.41448E-04   -0.12695E-05  1269   0.284E-02    0.298E-03
RMM:  14    -0.819455530448E+02   -0.31786E-04   -0.81566E-06  1234   0.169E-02    0.354E-03
RMM:  15    -0.819456022441E+02   -0.49199E-04   -0.18175E-05  1367   0.185E-02    0.299E-03
RMM:  16    -0.819456164653E+02   -0.14221E-04   -0.79237E-06  1259   0.173E-02    0.161E-03
RMM:  17    -0.819456234953E+02   -0.70300E-05   -0.64969E-06  1253   0.129E-02
  24 F= -.85114854E+02 E0= -.85112074E+02  d E =-.700634E+00
       N       E                     dE             d eps       ncg     rms          rms(c)
DAV:   1    -0.819469612278E+02   -0.13448E-02   -0.13201E+00  2080   0.532E+00    0.383E-01
RMM:   2    -0.819721234028E+02   -0.25162E-01   -0.46695E-02  2757   0.122E+00    0.131E+00
RMM:   3    -0.819470789518E+02    0.25044E-01   -0.10945E-02  2670   0.529E-01    0.204E-01
RMM:   4    -0.819482722095E+02   -0.11933E-02   -0.24615E-03  2611   0.282E-01    0.140E-01
RMM:   5    -0.819480993288E+02    0.17288E-03   -0.66973E-04  2471   0.125E-01    0.104E-01
RMM:   6    -0.819480546472E+02    0.44682E-04   -0.30313E-04  2369   0.874E-02    0.382E-02
RMM:   7    -0.819480761047E+02   -0.21458E-04   -0.14456E-04  1957   0.680E-02    0.131E-02
RMM:   8    -0.819480847067E+02   -0.86020E-05   -0.38626E-05  1599   0.412E-02
  25 F= -.85117500E+02 E0= -.85114703E+02  d E =-.703279E+00
       N       E                     dE             d eps       ncg     rms          rms(c)
DAV:   1    -0.819589377065E+02   -0.10862E-01   -0.69963E+00  2000   0.123E+01    0.870E-01
RMM:   2    -0.820748240822E+02   -0.11589E+00   -0.25466E-01  2753   0.280E+00    0.277E+00
RMM:   3    -0.819617695310E+02    0.11305E+00   -0.59857E-02  2652   0.120E+00    0.500E-01
RMM:   4    -0.819639342420E+02   -0.21647E-02   -0.15946E-02  2635   0.624E-01    0.370E-01
RMM:   5    -0.819626587880E+02    0.12755E-02   -0.50242E-03  2636   0.318E-01    0.272E-01
RMM:   6    -0.819622346060E+02    0.42418E-03   -0.20450E-03  2668   0.217E-01    0.104E-01
RMM:   7    -0.819623886042E+02   -0.15400E-03   -0.80269E-04  2607   0.133E-01    0.408E-02
RMM:   8    -0.819624796052E+02   -0.91001E-04   -0.24784E-04  2246   0.719E-02    0.158E-02
RMM:   9    -0.819625371509E+02   -0.57546E-04   -0.60991E-05  1806   0.417E-02    0.106E-02
RMM:  10    -0.819626228314E+02   -0.85680E-04   -0.26056E-05  1483   0.273E-02    0.450E-03
RMM:  11    -0.819626604846E+02   -0.37653E-04   -0.11248E-05  1279   0.235E-02    0.282E-03
RMM:  12    -0.819626872784E+02   -0.26794E-04   -0.70900E-06  1240   0.180E-02    0.194E-03
RMM:  13    -0.819627162749E+02   -0.28997E-04   -0.94520E-06  1266   0.153E-02    0.158E-03
RMM:  14    -0.819627375662E+02   -0.21291E-04   -0.86041E-06  1283   0.144E-02    0.134E-03
RMM:  15    -0.819627422415E+02   -0.46752E-05   -0.41020E-06  1210   0.129E-02
  26 F= -.85131702E+02 E0= -.85128981E+02  d E =-.142024E-01
       N       E                     dE             d eps       ncg     rms          rms(c)
DAV:   1    -0.819655117532E+02   -0.27742E-02   -0.62577E-01  2096   0.374E+00    0.285E-01
RMM:   2    -0.819800161701E+02   -0.14504E-01   -0.28677E-02  2785   0.866E-01    0.914E-01
RMM:   3    -0.819653485264E+02    0.14668E-01   -0.58540E-03  2612   0.387E-01    0.149E-01
RMM:   4    -0.819658368269E+02   -0.48830E-03   -0.16376E-03  2578   0.215E-01    0.102E-01
RMM:   5    -0.819657612553E+02    0.75572E-04   -0.70832E-04  2504   0.106E-01    0.576E-02
RMM:   6    -0.819657686265E+02   -0.73712E-05   -0.22235E-04  2296   0.696E-02    0.269E-02
RMM:   7    -0.819657706403E+02   -0.20139E-05   -0.53415E-05  1638   0.488E-02
  27 F= -.85134860E+02 E0= -.85132139E+02  d E =-.173602E-01
       N       E                     dE             d eps       ncg     rms          rms(c)
DAV:   1    -0.819878739174E+02   -0.22105E-01   -0.79549E-02  2256   0.131E+00    0.712E-02
RMM:   2    -0.819881609448E+02   -0.28703E-03   -0.31030E-03  2549   0.371E-01    0.668E-02
RMM:   3    -0.819882312416E+02   -0.70297E-04   -0.77964E-04  2635   0.121E-01    0.743E-02
RMM:   4    -0.819881418660E+02    0.89376E-04   -0.11173E-04  2041   0.666E-02    0.283E-02
RMM:   5    -0.819881418404E+02    0.25633E-07   -0.31925E-05  1446   0.413E-02
  28 F= -.85156516E+02 E0= -.85153900E+02  d E =-.216558E-01
       N       E                     dE             d eps       ncg     rms          rms(c)
DAV:   1    -0.820474871422E+02   -0.59345E-01   -0.71631E-01  2000   0.392E+00    0.213E-01
RMM:   2    -0.820501889555E+02   -0.27018E-02   -0.27558E-02  2629   0.104E+00    0.213E-01
RMM:   3    -0.820505176625E+02   -0.32871E-03   -0.63619E-03  2809   0.332E-01    0.213E-01
RMM:   4    -0.820498226455E+02    0.69502E-03   -0.88962E-04  2710   0.142E-01    0.810E-02
RMM:   5    -0.820498465653E+02   -0.23920E-04   -0.36948E-04  2486   0.949E-02    0.547E-02
RMM:   6    -0.820497953366E+02    0.51229E-04   -0.21636E-04  2192   0.925E-02    0.285E-02
RMM:   7    -0.820497759933E+02    0.19343E-04   -0.79928E-05  1823   0.580E-02    0.110E-02
RMM:   8    -0.820497763171E+02   -0.32383E-06   -0.17943E-05  1318   0.320E-02
  29 F= -.85216041E+02 E0= -.85213695E+02  d E =-.811808E-01
       N       E                     dE             d eps       ncg     rms          rms(c)
DAV:   1    -0.821382893811E+02   -0.88513E-01   -0.28757E+00  2000   0.787E+00    0.429E-01
RMM:   2    -0.821500687386E+02   -0.11779E-01   -0.11126E-01  2628   0.209E+00    0.527E-01
RMM:   3    -0.821497291658E+02    0.33957E-03   -0.25472E-02  2809   0.651E-01    0.384E-01
RMM:   4    -0.821477866075E+02    0.19426E-02   -0.34132E-03  2755   0.284E-01    0.158E-01
RMM:   5    -0.821479008873E+02   -0.11428E-03   -0.16780E-03  2705   0.199E-01    0.116E-01
RMM:   6    -0.821476328160E+02    0.26807E-03   -0.78577E-04  2587   0.147E-01    0.438E-02
RMM:   7    -0.821475753038E+02    0.57512E-04   -0.24532E-04  2195   0.987E-02    0.198E-02
RMM:   8    -0.821475748742E+02    0.42963E-06   -0.73805E-05  1735   0.439E-02
  30 F= -.85309779E+02 E0= -.85307908E+02  d E =-.174919E+00
       N       E                     dE             d eps       ncg     rms          rms(c)
DAV:   1    -0.821943436521E+02   -0.46768E-01   -0.11514E+01  2000   0.158E+01    0.917E-01
RMM:   2    -0.822544332983E+02   -0.60090E-01   -0.45946E-01  2656   0.421E+00    0.149E+00
RMM:   3    -0.822369038382E+02    0.17529E-01   -0.10379E-01  2776   0.135E+00    0.701E-01
RMM:   4    -0.822327920999E+02    0.41117E-02   -0.15545E-02  2731   0.626E-01    0.348E-01
RMM:   5    -0.822324353241E+02    0.35678E-03   -0.69863E-03  2683   0.409E-01    0.272E-01
RMM:   6    -0.822312269655E+02    0.12084E-02   -0.30728E-03  2670   0.281E-01    0.103E-01
RMM:   7    -0.822311539900E+02    0.72975E-04   -0.92259E-04  2616   0.165E-01    0.370E-02
RMM:   8    -0.822311528930E+02    0.10971E-05   -0.20690E-04  2183   0.708E-02    0.197E-02
RMM:   9    -0.822311665838E+02   -0.13691E-04   -0.10603E-04  2114   0.426E-02    0.634E-03
RMM:  10    -0.822311745629E+02   -0.79790E-05   -0.21224E-05  1365   0.345E-02
  31 F= -.85385819E+02 E0= -.85384455E+02  d E =-.250959E+00
       N       E                     dE             d eps       ncg     rms          rms(c)
DAV:   1    -0.822666075409E+02   -0.35441E-01   -0.25940E-01  2336   0.235E+00    0.138E-01
RMM:   2    -0.822674540795E+02   -0.84654E-03   -0.10036E-02  2500   0.697E-01    0.109E-01
RMM:   3    -0.822677904719E+02   -0.33639E-03   -0.21635E-03  2721   0.208E-01    0.145E-01
RMM:   4    -0.822674869890E+02    0.30348E-03   -0.50539E-04  2563   0.114E-01    0.472E-02
RMM:   5    -0.822674986100E+02   -0.11621E-04   -0.13015E-04  2100   0.743E-02    0.345E-02
RMM:   6    -0.822674797623E+02    0.18848E-04   -0.77793E-05  1835   0.560E-02    0.136E-02
RMM:   7    -0.822674848137E+02   -0.50514E-05   -0.33159E-05  1478   0.437E-02
  32 F= -.85420952E+02 E0= -.85419714E+02  d E =-.351322E-01
       N       E                     dE             d eps       ncg     rms          rms(c)
DAV:   1    -0.823498512963E+02   -0.82372E-01   -0.23352E+00  2000   0.706E+00    0.410E-01
RMM:   2    -0.823578988020E+02   -0.80475E-02   -0.92399E-02  2543   0.207E+00    0.328E-01
RMM:   3    -0.823606504779E+02   -0.27517E-02   -0.18109E-02  2755   0.598E-01    0.422E-01
RMM:   4    -0.823578829139E+02    0.27676E-02   -0.42905E-03  2777   0.314E-01    0.135E-01
RMM:   5    -0.823579689889E+02   -0.86075E-04   -0.11139E-03  2613   0.181E-01    0.968E-02
RMM:   6    -0.823577839330E+02    0.18506E-03   -0.75932E-04  2536   0.150E-01    0.406E-02
RMM:   7    -0.823577637345E+02    0.20198E-04   -0.21929E-04  2229   0.884E-02    0.179E-02
RMM:   8    -0.823577670152E+02   -0.32807E-05   -0.62586E-05  1700   0.386E-02
  33 F= -.85507781E+02 E0= -.85506909E+02  d E =-.121961E+00
       N       E                     dE             d eps       ncg     rms          rms(c)
DAV:   1    -0.824208346334E+02   -0.63071E-01   -0.93760E+00  2000   0.141E+01    0.823E-01
RMM:   2    -0.824546547304E+02   -0.33820E-01   -0.38657E-01  2598   0.409E+00    0.605E-01
RMM:   3    -0.824655848672E+02   -0.10930E-01   -0.64189E-02  2769   0.114E+00    0.828E-01
RMM:   4    -0.824536945880E+02    0.11890E-01   -0.15184E-02  2779   0.588E-01    0.265E-01
RMM:   5    -0.824540048385E+02   -0.31025E-03   -0.46411E-03  2677   0.328E-01    0.140E-01
RMM:   6    -0.824537481070E+02    0.25673E-03   -0.30508E-03  2624   0.275E-01    0.886E-02
RMM:   7    -0.824535669216E+02    0.18119E-03   -0.61386E-04  2385   0.141E-01    0.368E-02
RMM:   8    -0.824535655067E+02    0.14149E-05   -0.20981E-04  2241   0.705E-02    0.190E-02
RMM:   9    -0.824535745014E+02   -0.89947E-05   -0.10897E-04  2045   0.476E-02    0.790E-03
RMM:  10    -0.824535803257E+02   -0.58242E-05   -0.21835E-05  1389   0.373E-02
  34 F= -.85597046E+02 E0= -.85596828E+02  d E =-.211227E+00
       N       E                     dE             d eps       ncg     rms          rms(c)
DAV:   1    -0.824572544581E+02   -0.36800E-02   -0.73642E-01  2112   0.394E+00    0.224E-01
RMM:   2    -0.824595180145E+02   -0.22636E-02   -0.28092E-02  2517   0.117E+00    0.137E-01
RMM:   3    -0.824603911363E+02   -0.87312E-03   -0.61758E-03  2771   0.341E-01    0.195E-01
RMM:   4    -0.824598542252E+02    0.53691E-03   -0.13562E-03  2750   0.166E-01    0.810E-02
RMM:   5    -0.824598687239E+02   -0.14499E-04   -0.37420E-04  2441   0.104E-01    0.529E-02
RMM:   6    -0.824598145874E+02    0.54137E-04   -0.20533E-04  2226   0.864E-02    0.227E-02
RMM:   7    -0.824598100340E+02    0.45534E-05   -0.70125E-05  1781   0.515E-02
  35 F= -.85601531E+02 E0= -.85601481E+02  d E =-.215711E+00
       N       E                     dE             d eps       ncg     rms          rms(c)
DAV:   1    -0.825183482084E+02   -0.58534E-01   -0.22231E+00  2000   0.713E+00    0.552E-01
RMM:   2    -0.825647883659E+02   -0.46440E-01   -0.13586E-01  2738   0.204E+00    0.161E+00
RMM:   3    -0.825203867334E+02    0.44402E-01   -0.25024E-02  2667   0.838E-01    0.272E-01
RMM:   4    -0.825221223084E+02   -0.17356E-02   -0.61222E-03  2658   0.420E-01    0.204E-01
RMM:   5    -0.825214827022E+02    0.63961E-03   -0.21860E-03  2640   0.233E-01    0.132E-01
RMM:   6    -0.825213566567E+02    0.12605E-03   -0.77797E-04  2588   0.142E-01    0.565E-02
RMM:   7    -0.825214106624E+02   -0.54006E-04   -0.29946E-04  2351   0.911E-02    0.231E-02
RMM:   8    -0.825214498949E+02   -0.39233E-04   -0.72764E-05  1815   0.528E-02    0.102E-02
RMM:   9    -0.825214925466E+02   -0.42652E-04   -0.25803E-05  1469   0.316E-02    0.480E-03
RMM:  10    -0.825215252045E+02   -0.32658E-04   -0.98706E-06  1238   0.234E-02    0.255E-03
RMM:  11    -0.825215488938E+02   -0.23689E-04   -0.75180E-06  1226   0.178E-02    0.167E-03
RMM:  12    -0.825215738392E+02   -0.24945E-04   -0.78463E-06  1265   0.160E-02    0.142E-03
RMM:  13    -0.825215943211E+02   -0.20482E-04   -0.98559E-06  1284   0.144E-02    0.967E-04
RMM:  14    -0.825215993772E+02   -0.50560E-05   -0.41012E-06  1207   0.141E-02
  36 F= -.85660629E+02 E0= -.85661032E+02  d E =-.590981E-01
       N       E                     dE             d eps       ncg     rms          rms(c)
DAV:   1    -0.825505803123E+02   -0.28986E-01   -0.67223E+00  2000   0.125E+01    0.844E-01
RMM:   2    -0.826273406357E+02   -0.76760E-01   -0.35907E-01  2724   0.343E+00    0.190E+00
RMM:   3    -0.825660817637E+02    0.61259E-01   -0.58386E-02  2709   0.125E+00    0.460E-01
RMM:   4    -0.825666075883E+02   -0.52582E-03   -0.13520E-02  2628   0.639E-01    0.344E-01
RMM:   5    -0.825649115881E+02    0.16960E-02   -0.44742E-03  2627   0.360E-01    0.239E-01
RMM:   6    -0.825644144407E+02    0.49715E-03   -0.23013E-03  2700   0.228E-01    0.892E-02
RMM:   7    -0.825645306454E+02   -0.11620E-03   -0.78132E-04  2641   0.140E-01    0.354E-02
RMM:   8    -0.825646243437E+02   -0.93698E-04   -0.17778E-04  2193   0.661E-02    0.152E-02
RMM:   9    -0.825647379159E+02   -0.11357E-03   -0.59875E-05  1782   0.389E-02    0.622E-03
RMM:  10    -0.825648018780E+02   -0.63962E-04   -0.23564E-05  1366   0.324E-02    0.330E-03
RMM:  11    -0.825648340713E+02   -0.32193E-04   -0.10287E-05  1236   0.240E-02    0.252E-03
RMM:  12    -0.825648944911E+02   -0.60420E-04   -0.20931E-05  1363   0.208E-02    0.219E-03
RMM:  13    -0.825649137064E+02   -0.19215E-04   -0.86811E-06  1254   0.203E-02    0.145E-03
RMM:  14    -0.825649210837E+02   -0.73772E-05   -0.53753E-06  1220   0.144E-02
  37 F= -.85699407E+02 E0= -.85700558E+02  d E =-.978759E-01
       N       E                     dE             d eps       ncg     rms          rms(c)
DAV:   1    -0.825909451514E+02   -0.26031E-01   -0.49748E-01  2176   0.351E+00    0.194E-01
RMM:   2    -0.825932895351E+02   -0.23444E-02   -0.13984E-02  2590   0.780E-01    0.257E-01
RMM:   3    -0.825922266062E+02    0.10629E-02   -0.35972E-03  2757   0.284E-01    0.121E-01
RMM:   4    -0.825920275792E+02    0.19903E-03   -0.47617E-04  2486   0.134E-01    0.673E-02
RMM:   5    -0.825920078091E+02    0.19770E-04   -0.16377E-04  2148   0.788E-02    0.394E-02
RMM:   6    -0.825920045334E+02    0.32757E-05   -0.10622E-04  2003   0.568E-02    0.633E-03
RMM:   7    -0.825920097382E+02   -0.52047E-05   -0.25049E-05  1435   0.385E-02
  38 F= -.85725197E+02 E0= -.85726576E+02  d E =-.257898E-01
       N       E                     dE             d eps       ncg     rms          rms(c)
DAV:   1    -0.826317794244E+02   -0.39775E-01   -0.44416E+00  2000   0.105E+01    0.545E-01
RMM:   2    -0.826462913677E+02   -0.14512E-01   -0.12413E-01  2581   0.229E+00    0.513E-01
RMM:   3    -0.826454260604E+02    0.86531E-03   -0.31566E-02  2783   0.810E-01    0.382E-01
RMM:   4    -0.826424366643E+02    0.29894E-02   -0.37746E-03  2540   0.362E-01    0.195E-01
RMM:   5    -0.826424477081E+02   -0.11044E-04   -0.16330E-03  2571   0.216E-01    0.119E-01
RMM:   6    -0.826424151047E+02    0.32603E-04   -0.11122E-03  2649   0.151E-01    0.248E-02
RMM:   7    -0.826424440883E+02   -0.28984E-04   -0.18609E-04  2146   0.728E-02    0.163E-02
RMM:   8    -0.826424598937E+02   -0.15805E-04   -0.42887E-05  1575   0.400E-02    0.985E-03
RMM:   9    -0.826424921454E+02   -0.32252E-04   -0.34558E-05  1494   0.310E-02    0.459E-03
RMM:  10    -0.826425088363E+02   -0.16691E-04   -0.11885E-05  1242   0.313E-02    0.330E-03
RMM:  11    -0.826425276695E+02   -0.18833E-04   -0.64358E-06  1222   0.156E-02    0.230E-03
RMM:  12    -0.826425596415E+02   -0.31972E-04   -0.10657E-05  1303   0.153E-02    0.200E-03
RMM:  13    -0.826425701692E+02   -0.10528E-04   -0.49833E-06  1225   0.137E-02    0.139E-03
RMM:  14    -0.826425800342E+02   -0.98650E-05   -0.49187E-06  1214   0.110E-02
  39 F= -.85771966E+02 E0= -.85773929E+02  d E =-.725596E-01
       N       E                     dE             d eps       ncg     rms          rms(c)
DAV:   1    -0.826472752728E+02   -0.47051E-02   -0.10817E+00  2000   0.518E+00    0.258E-01
RMM:   2    -0.826504546905E+02   -0.31794E-02   -0.30764E-02  2592   0.114E+00    0.203E-01
RMM:   3    -0.826507673788E+02   -0.31269E-03   -0.71786E-03  2783   0.386E-01    0.183E-01
RMM:   4    -0.826499912161E+02    0.77616E-03   -0.87223E-04  2519   0.174E-01    0.879E-02
RMM:   5    -0.826500246637E+02   -0.33448E-04   -0.38540E-04  2387   0.107E-01    0.529E-02
RMM:   6    -0.826500063181E+02    0.18346E-04   -0.25429E-04  2321   0.800E-02    0.113E-02
RMM:   7    -0.826500103152E+02   -0.39971E-05   -0.42218E-05  1592   0.453E-02
  40 F= -.85777579E+02 E0= -.85779769E+02  d E =-.781719E-01
       N       E                     dE             d eps       ncg     rms          rms(c)
DAV:   1    -0.826816345162E+02   -0.31628E-01   -0.10047E+00  2000   0.488E+00    0.378E-01
RMM:   2    -0.826897113762E+02   -0.80769E-02   -0.55472E-02  2747   0.130E+00    0.492E-01
RMM:   3    -0.826849270569E+02    0.47843E-02   -0.13958E-02  2745   0.521E-01    0.212E-01
RMM:   4    -0.826844885873E+02    0.43847E-03   -0.30835E-03  2643   0.279E-01    0.149E-01
RMM:   5    -0.826841820360E+02    0.30655E-03   -0.72841E-04  2442   0.147E-01    0.879E-02
RMM:   6    -0.826842050792E+02   -0.23043E-04   -0.32426E-04  2468   0.892E-02    0.226E-02
RMM:   7    -0.826842223766E+02   -0.17297E-04   -0.85037E-05  1877   0.516E-02    0.882E-03
RMM:   8    -0.826842341788E+02   -0.11802E-04   -0.19882E-05  1429   0.303E-02    0.578E-03
RMM:   9    -0.826842427481E+02   -0.85693E-05   -0.75889E-06  1279   0.215E-02
  41 F= -.85809916E+02 E0= -.85812180E+02  d E =-.323369E-01
       N       E                     dE             d eps       ncg     rms          rms(c)
DAV:   1    -0.826943447062E+02   -0.10111E-01   -0.97993E-01  2000   0.485E+00    0.371E-01
RMM:   2    -0.827015790532E+02   -0.72343E-02   -0.53176E-02  2748   0.127E+00    0.449E-01
RMM:   3    -0.826975084987E+02    0.40706E-02   -0.12398E-02  2749   0.507E-01    0.206E-01
RMM:   4    -0.826969972042E+02    0.51129E-03   -0.28129E-03  2618   0.272E-01    0.143E-01
RMM:   5    -0.826967062303E+02    0.29097E-03   -0.67781E-04  2411   0.143E-01    0.839E-02
RMM:   6    -0.826967278892E+02   -0.21659E-04   -0.30221E-04  2468   0.845E-02    0.210E-02
RMM:   7    -0.826967457943E+02   -0.17905E-04   -0.73641E-05  1864   0.461E-02    0.774E-03
RMM:   8    -0.826967575073E+02   -0.11713E-04   -0.17446E-05  1398   0.293E-02    0.529E-03
RMM:   9    -0.826967650967E+02   -0.75894E-05   -0.64255E-06  1242   0.209E-02
  42 F= -.85820608E+02 E0= -.85822929E+02  d E =-.430291E-01
       N       E                     dE             d eps       ncg     rms          rms(c)
DAV:   1    -0.827132571858E+02   -0.16500E-01   -0.60056E-01  2048   0.372E+00    0.264E-01
RMM:   2    -0.827158153179E+02   -0.25581E-02   -0.33154E-02  2778   0.102E+00    0.163E-01
RMM:   3    -0.827161408389E+02   -0.32552E-03   -0.48554E-03  2810   0.324E-01    0.177E-01
RMM:   4    -0.827155184465E+02    0.62239E-03   -0.11197E-03  2627   0.172E-01    0.100E-01
RMM:   5    -0.827154645623E+02    0.53884E-04   -0.75261E-04  2559   0.142E-01    0.590E-02
RMM:   6    -0.827153698903E+02    0.94672E-04   -0.17127E-04  2109   0.891E-02    0.266E-02
RMM:   7    -0.827153740983E+02   -0.42080E-05   -0.12395E-04  2036   0.545E-02    0.160E-02
RMM:   8    -0.827153707870E+02    0.33113E-05   -0.20180E-05  1353   0.383E-02
  43 F= -.85838381E+02 E0= -.85840673E+02  d E =-.177730E-01
       N       E                     dE             d eps       ncg     rms          rms(c)
DAV:   1    -0.827167815644E+02   -0.14075E-02   -0.75625E-02  2384   0.132E+00    0.958E-02
RMM:   2    -0.827171088165E+02   -0.32725E-03   -0.42246E-03  2831   0.365E-01    0.599E-02
RMM:   3    -0.827171561829E+02   -0.47366E-04   -0.60972E-04  2609   0.116E-01    0.681E-02
RMM:   4    -0.827170522396E+02    0.10394E-03   -0.14875E-04  2188   0.801E-02    0.367E-02
RMM:   5    -0.827170490894E+02    0.31502E-05   -0.12908E-04  2004   0.590E-02    0.221E-02
RMM:   6    -0.827170335934E+02    0.15496E-04   -0.22835E-05  1338   0.412E-02    0.915E-03
RMM:   7    -0.827170360186E+02   -0.24253E-05   -0.10737E-05  1219   0.255E-02
  44 F= -.85839759E+02 E0= -.85842033E+02  d E =-.191516E-01
       N       E                     dE             d eps       ncg     rms          rms(c)
DAV:   1    -0.827250417241E+02   -0.80081E-02   -0.13568E-01  2016   0.182E+00    0.127E-01
RMM:   2    -0.827257184540E+02   -0.67673E-03   -0.68881E-03  2701   0.523E-01    0.947E-02
RMM:   3    -0.827257266183E+02   -0.81643E-05   -0.13147E-03  2690   0.175E-01    0.808E-02
RMM:   4    -0.827255630035E+02    0.16361E-03   -0.25754E-04  2354   0.960E-02    0.404E-02
RMM:   5    -0.827255677529E+02   -0.47494E-05   -0.10076E-04  1979   0.567E-02    0.278E-02
RMM:   6    -0.827255630423E+02    0.47106E-05   -0.37842E-05  1549   0.409E-02
  45 F= -.85848298E+02 E0= -.85850573E+02  d E =-.853885E-02
       N       E                     dE             d eps       ncg     rms          rms(c)
DAV:   1    -0.827360441922E+02   -0.10476E-01   -0.12191E+00  2000   0.545E+00    0.381E-01
RMM:   2    -0.827417741972E+02   -0.57300E-02   -0.61416E-02  2717   0.154E+00    0.265E-01
RMM:   3    -0.827422002275E+02   -0.42603E-03   -0.11519E-02  2756   0.509E-01    0.243E-01
RMM:   4    -0.827406778027E+02    0.15224E-02   -0.22115E-03  2621   0.261E-01    0.122E-01
RMM:   5    -0.827406884712E+02   -0.10669E-04   -0.92379E-04  2619   0.148E-01    0.854E-02
RMM:   6    -0.827406257310E+02    0.62740E-04   -0.35996E-04  2382   0.972E-02    0.380E-02
RMM:   7    -0.827406201459E+02    0.55851E-05   -0.12850E-04  2147   0.631E-02    0.113E-02
RMM:   8    -0.827406211272E+02   -0.98130E-06   -0.24467E-05  1416   0.343E-02
  46 F= -.85863462E+02 E0= -.85865715E+02  d E =-.237025E-01
       N       E                     dE             d eps       ncg     rms          rms(c)
DAV:   1    -0.827412358800E+02   -0.61573E-03   -0.24305E-01  2000   0.243E+00    0.169E-01
RMM:   2    -0.827423658003E+02   -0.11299E-02   -0.12014E-02  2724   0.681E-01    0.116E-01
RMM:   3    -0.827424553291E+02   -0.89529E-04   -0.22883E-03  2736   0.226E-01    0.107E-01
RMM:   4    -0.827421540250E+02    0.30130E-03   -0.44793E-04  2494   0.123E-01    0.528E-02
RMM:   5    -0.827421575718E+02   -0.35468E-05   -0.18547E-04  2243   0.689E-02    0.362E-02
RMM:   6    -0.827421484859E+02    0.90859E-05   -0.63593E-05  1743   0.462E-02
  47 F= -.85865071E+02 E0= -.85867306E+02  d E =-.253112E-01
       N       E                     dE             d eps       ncg     rms          rms(c)
DAV:   1    -0.827434742664E+02   -0.13167E-02   -0.99949E-01  2000   0.497E+00    0.283E-01
RMM:   2    -0.827482113920E+02   -0.47371E-02   -0.46092E-02  2783   0.115E+00    0.265E-01
RMM:   3    -0.827474456120E+02    0.76578E-03   -0.61435E-03  2756   0.384E-01    0.149E-01
RMM:   4    -0.827469916389E+02    0.45397E-03   -0.14519E-03  2640   0.212E-01    0.107E-01
RMM:   5    -0.827468068886E+02    0.18475E-03   -0.40353E-04  2308   0.121E-01    0.653E-02
RMM:   6    -0.827467878114E+02    0.19077E-04   -0.37281E-04  2457   0.897E-02    0.207E-02
RMM:   7    -0.827467926790E+02   -0.48676E-05   -0.77978E-05  1793   0.519E-02
  48 F= -.85870254E+02 E0= -.85872481E+02  d E =-.518362E-02
       N       E                     dE             d eps       ncg     rms          rms(c)
DAV:   1    -0.827468110711E+02   -0.23260E-04   -0.69558E-04  2696   0.139E-01    0.109E-02
RMM:   2    -0.827468159914E+02   -0.49203E-05   -0.27033E-05  1370   0.332E-02
  49 F= -.85870263E+02 E0= -.85872498E+02  d E =-.519272E-02
       N       E                     dE             d eps       ncg     rms          rms(c)
DAV:   1    -0.827503214505E+02   -0.35104E-02   -0.28718E-01  2000   0.256E+00    0.150E-01
RMM:   2    -0.827510099580E+02   -0.68851E-03   -0.86810E-03  2705   0.540E-01    0.592E-02
RMM:   3    -0.827510643303E+02   -0.54372E-04   -0.10000E-03  2609   0.145E-01    0.441E-02
RMM:   4    -0.827510853967E+02   -0.21066E-04   -0.23507E-04  2331   0.820E-02    0.361E-02
RMM:   5    -0.827510902983E+02   -0.49017E-05   -0.57915E-05  1680   0.519E-02
  50 F= -.85874824E+02 E0= -.85877033E+02  d E =-.456072E-02
       N       E                     dE             d eps       ncg     rms          rms(c)
DAV:   1    -0.827520916318E+02   -0.10062E-02   -0.25735E+00  2000   0.767E+00    0.453E-01
RMM:   2    -0.827584650945E+02   -0.63735E-02   -0.79098E-02  2694   0.162E+00    0.199E-01
RMM:   3    -0.827594767554E+02   -0.10117E-02   -0.10696E-02  2767   0.462E-01    0.188E-01
RMM:   4    -0.827590394161E+02    0.43734E-03   -0.25275E-03  2745   0.234E-01    0.138E-01
RMM:   5    -0.827589486246E+02    0.90792E-04   -0.61887E-04  2508   0.134E-01    0.899E-02
RMM:   6    -0.827589559343E+02   -0.73097E-05   -0.29233E-04  2347   0.940E-02    0.414E-02
RMM:   7    -0.827589479757E+02    0.79586E-05   -0.89874E-05  1925   0.593E-02
  51 F= -.85883567E+02 E0= -.85885770E+02  d E =-.133036E-01
       N       E                     dE             d eps       ncg     rms          rms(c)
DAV:   1    -0.827238045159E+02    0.35151E-01   -0.10169E+01  2000   0.152E+01    0.920E-01
RMM:   2    -0.827508152751E+02   -0.27011E-01   -0.33466E-01  2704   0.332E+00    0.411E-01
RMM:   3    -0.827545059730E+02   -0.36907E-02   -0.42908E-02  2764   0.931E-01    0.375E-01
RMM:   4    -0.827527301073E+02    0.17759E-02   -0.11086E-02  2746   0.478E-01    0.283E-01
RMM:   5    -0.827521724204E+02    0.55769E-03   -0.24595E-03  2592   0.262E-01    0.182E-01
RMM:   6    -0.827522556632E+02   -0.83243E-04   -0.12496E-03  2556   0.185E-01    0.900E-02
RMM:   7    -0.827522109975E+02    0.44666E-04   -0.41127E-04  2437   0.113E-01    0.151E-02
RMM:   8    -0.827522189617E+02   -0.79642E-05   -0.10617E-04  1867   0.546E-02    0.100E-02
RMM:   9    -0.827522231902E+02   -0.42285E-05   -0.20756E-05  1375   0.296E-02
  52 F= -.85878730E+02 E0= -.85880843E+02  d E =-.846699E-02
       N       E                     dE             d eps       ncg     rms          rms(c)
DAV:   1    -0.827485044679E+02    0.37145E-02   -0.45463E+00  2000   0.102E+01    0.592E-01
RMM:   2    -0.827591829738E+02   -0.10679E-01   -0.13144E-01  2721   0.203E+00    0.239E-01
RMM:   3    -0.827604515683E+02   -0.12686E-02   -0.15364E-02  2759   0.559E-01    0.218E-01
RMM:   4    -0.827602041945E+02    0.24737E-03   -0.34815E-03  2763   0.265E-01    0.162E-01
RMM:   5    -0.827601106999E+02    0.93495E-04   -0.10432E-03  2604   0.172E-01    0.106E-01
RMM:   6    -0.827600778950E+02    0.32805E-04   -0.38739E-04  2374   0.116E-01    0.484E-02
RMM:   7    -0.827600768683E+02    0.10267E-05   -0.12894E-04  2084   0.697E-02    0.981E-03
RMM:   8    -0.827600793016E+02   -0.24334E-05   -0.34824E-05  1561   0.386E-02
  53 F= -.85885313E+02 E0= -.85887484E+02  d E =-.150494E-01
       N       E                     dE             d eps       ncg     rms          rms(c)
DAV:   1    -0.827616770964E+02   -0.16002E-02   -0.20580E-01  2000   0.219E+00    0.123E-01
RMM:   2    -0.827624301507E+02   -0.75305E-03   -0.68595E-03  2753   0.461E-01    0.111E-01
RMM:   3    -0.827622737306E+02    0.15642E-03   -0.10282E-03  2695   0.155E-01    0.637E-02
RMM:   4    -0.827621952121E+02    0.78518E-04   -0.23914E-04  2259   0.966E-02    0.419E-02
RMM:   5    -0.827621773655E+02    0.17847E-04   -0.59421E-05  1667   0.522E-02    0.253E-02
RMM:   6    -0.827621793988E+02   -0.20333E-05   -0.28454E-05  1453   0.369E-02
  54 F= -.85887556E+02 E0= -.85889753E+02  d E =-.224374E-02
       N       E                     dE             d eps       ncg     rms          rms(c)
DAV:   1    -0.827621916278E+02   -0.14262E-04   -0.23636E-01  2000   0.234E+00    0.132E-01
RMM:   2    -0.827630310762E+02   -0.83945E-03   -0.78339E-03  2740   0.498E-01    0.114E-01
RMM:   3    -0.827629077636E+02    0.12331E-03   -0.13280E-03  2725   0.173E-01    0.688E-02
RMM:   4    -0.827628195157E+02    0.88248E-04   -0.29923E-04  2392   0.101E-01    0.454E-02
RMM:   5    -0.827627984968E+02    0.21019E-04   -0.68895E-05  1745   0.541E-02    0.283E-02
RMM:   6    -0.827628017631E+02   -0.32664E-05   -0.31192E-05  1475   0.379E-02
  55 F= -.85888335E+02 E0= -.85890554E+02  d E =-.302278E-02
       N       E                     dE             d eps       ncg     rms          rms(c)
DAV:   1    -0.827643694441E+02   -0.15709E-02   -0.27863E-01  2000   0.251E+00    0.149E-01
RMM:   2    -0.827650527092E+02   -0.68327E-03   -0.86664E-03  2656   0.554E-01    0.650E-02
RMM:   3    -0.827650905713E+02   -0.37862E-04   -0.98494E-04  2661   0.152E-01    0.463E-02
RMM:   4    -0.827651246732E+02   -0.34102E-04   -0.24901E-04  2338   0.777E-02    0.421E-02
RMM:   5    -0.827651077632E+02    0.16910E-04   -0.78805E-05  1829   0.550E-02    0.243E-02
RMM:   6    -0.827650971032E+02    0.10660E-04   -0.28982E-05  1452   0.449E-02    0.112E-02
RMM:   7    -0.827650982689E+02   -0.11657E-05   -0.15030E-05  1309   0.269E-02
  56 F= -.85890547E+02 E0= -.85892789E+02  d E =-.221182E-02
       N       E                     dE             d eps       ncg     rms          rms(c)
DAV:   1    -0.827649605292E+02    0.13657E-03   -0.47259E-01  2000   0.327E+00    0.191E-01
RMM:   2    -0.827661220232E+02   -0.11615E-02   -0.14719E-02  2687   0.714E-01    0.845E-02
RMM:   3    -0.827661755928E+02   -0.53570E-04   -0.15882E-03  2730   0.192E-01    0.610E-02
RMM:   4    -0.827662390364E+02   -0.63444E-04   -0.42407E-04  2502   0.943E-02    0.565E-02
RMM:   5    -0.827661964582E+02    0.42578E-04   -0.13824E-04  2047   0.689E-02    0.300E-02
RMM:   6    -0.827661803502E+02    0.16108E-04   -0.49748E-05  1617   0.534E-02    0.137E-02
RMM:   7    -0.827661824662E+02   -0.21160E-05   -0.24189E-05  1399   0.322E-02
  57 F= -.85891527E+02 E0= -.85893797E+02  d E =-.319117E-02
       N       E                     dE             d eps       ncg     rms          rms(c)
DAV:   1    -0.827673839211E+02   -0.12036E-02   -0.13183E-01  2032   0.178E+00    0.103E-01
RMM:   2    -0.827678629215E+02   -0.47900E-03   -0.49936E-03  2729   0.403E-01    0.737E-02
RMM:   3    -0.827678628136E+02    0.10790E-06   -0.62367E-04  2623   0.128E-01    0.547E-02
RMM:   4    -0.827677824940E+02    0.80320E-04   -0.14239E-04  2126   0.755E-02    0.342E-02
RMM:   5    -0.827677735011E+02    0.89929E-05   -0.28603E-05  1449   0.435E-02
  58 F= -.85893032E+02 E0= -.85895327E+02  d E =-.150513E-02
       N       E                     dE             d eps       ncg     rms          rms(c)
DAV:   1    -0.827675628991E+02    0.21959E-03   -0.62231E-01  2000   0.386E+00    0.225E-01
RMM:   2    -0.827698308723E+02   -0.22680E-02   -0.23181E-02  2755   0.856E-01    0.168E-01
RMM:   3    -0.827697680711E+02    0.62801E-04   -0.29104E-03  2716   0.275E-01    0.120E-01
RMM:   4    -0.827693782181E+02    0.38985E-03   -0.68365E-04  2513   0.152E-01    0.744E-02
RMM:   5    -0.827693310951E+02    0.47123E-04   -0.14594E-04  2040   0.777E-02    0.554E-02
RMM:   6    -0.827693329065E+02   -0.18114E-05   -0.12493E-04  2026   0.573E-02    0.140E-02
RMM:   7    -0.827693364197E+02   -0.35132E-05   -0.30566E-05  1464   0.407E-02
  59 F= -.85894415E+02 E0= -.85896739E+02  d E =-.288841E-02
       N       E                     dE             d eps       ncg     rms          rms(c)
DAV:   1    -0.827693383663E+02   -0.54598E-05   -0.33566E-03  2400   0.285E-01    0.171E-02
RMM:   2    -0.827693546358E+02   -0.16270E-04   -0.15329E-04  2096   0.759E-02    0.125E-02
RMM:   3    -0.827693549594E+02   -0.32357E-06   -0.16623E-05  1252   0.300E-02
  60 F= -.85894421E+02 E0= -.85896759E+02  d E =-.289410E-02
       N       E                     dE             d eps       ncg     rms          rms(c)
DAV:   1    -0.827693470640E+02    0.75719E-05   -0.84532E-04  2400   0.146E-01    0.113E-02
RMM:   2    -0.827693560605E+02   -0.89966E-05   -0.37416E-05  1447   0.408E-02
  61 F= -.85894428E+02 E0= -.85896770E+02  d E =-.290165E-02
       N       E                     dE             d eps       ncg     rms          rms(c)
DAV:   1    -0.827693546945E+02   -0.76305E-05   -0.26639E-04  2440   0.897E-02    0.537E-03
RMM:   2    -0.827693593496E+02   -0.46552E-05   -0.13362E-05  1171   0.267E-02
  62 F= -.85894428E+02 E0= -.85896772E+02  d E =-.290141E-02
       N       E                     dE             d eps       ncg     rms          rms(c)
DAV:   1    -0.827693556755E+02   -0.98098E-06   -0.76311E-05  2400   0.539E-02    0.409E-03
RMM:   2    -0.827693578007E+02   -0.21252E-05   -0.40338E-06  1047   0.149E-02
  63 F= -.85894428E+02 E0= -.85896761E+02  d E =-.290162E-02
       N       E                     dE             d eps       ncg     rms          rms(c)
DAV:   1    -0.827697521135E+02   -0.39644E-03   -0.30192E-03  2080   0.260E-01    0.172E-02
RMM:   2    -0.827697699877E+02   -0.17874E-04   -0.13746E-04  2124   0.819E-02    0.149E-02
RMM:   3    -0.827697669262E+02    0.30615E-05   -0.26382E-05  1344   0.338E-02
  64 F= -.85894768E+02 E0= -.85897090E+02  d E =-.340287E-03
       N       E                     dE             d eps       ncg     rms          rms(c)
DAV:   1    -0.827707367016E+02   -0.96671E-03   -0.27803E-02  2000   0.788E-01    0.545E-02
RMM:   2    -0.827708615250E+02   -0.12482E-03   -0.11751E-03  2606   0.231E-01    0.429E-02
RMM:   3    -0.827708570091E+02    0.45159E-05   -0.23892E-04  2317   0.767E-02    0.313E-02
RMM:   4    -0.827708331401E+02    0.23869E-04   -0.43372E-05  1588   0.576E-02    0.162E-02
RMM:   5    -0.827708311961E+02    0.19441E-05   -0.15512E-05  1253   0.321E-02
  65 F= -.85895628E+02 E0= -.85897947E+02  d E =-.119955E-02
       N       E                     dE             d eps       ncg     rms          rms(c)
DAV:   1    -0.827718765980E+02   -0.10435E-02   -0.10982E-01  2000   0.157E+00    0.101E-01
RMM:   2    -0.827723472670E+02   -0.47067E-03   -0.44493E-03  2606   0.444E-01    0.785E-02
RMM:   3    -0.827723401565E+02    0.71105E-05   -0.88494E-04  2688   0.142E-01    0.590E-02
RMM:   4    -0.827722532606E+02    0.86896E-04   -0.16789E-04  2163   0.829E-02    0.298E-02
RMM:   5    -0.827722448602E+02    0.84004E-05   -0.44063E-05  1615   0.451E-02
  66 F= -.85896638E+02 E0= -.85898944E+02  d E =-.220956E-02
       N       E                     dE             d eps       ncg     rms          rms(c)
DAV:   1    -0.827707777057E+02    0.14756E-02   -0.43950E-01  2000   0.314E+00    0.203E-01
RMM:   2    -0.827725751907E+02   -0.17975E-02   -0.17263E-02  2609   0.874E-01    0.154E-01
RMM:   3    -0.827726030018E+02   -0.27811E-04   -0.35176E-03  2765   0.278E-01    0.120E-01
RMM:   4    -0.827722387627E+02    0.36424E-03   -0.65699E-04  2500   0.150E-01    0.596E-02
RMM:   5    -0.827721996681E+02    0.39095E-04   -0.19232E-04  2168   0.789E-02    0.328E-02
RMM:   6    -0.827721958590E+02    0.38091E-05   -0.13707E-04  2101   0.612E-02    0.906E-03
RMM:   7    -0.827721994617E+02   -0.36027E-05   -0.34350E-05  1546   0.379E-02
  67 F= -.85895811E+02 E0= -.85898112E+02  d E =-.138295E-02
       N       E                     dE             d eps       ncg     rms          rms(c)
DAV:   1    -0.827719757066E+02    0.22015E-03   -0.21642E-01  2000   0.220E+00    0.144E-01
RMM:   2    -0.827729032787E+02   -0.92757E-03   -0.85733E-03  2631   0.593E-01    0.112E-01
RMM:   3    -0.827728448234E+02    0.58455E-04   -0.15528E-03  2738   0.190E-01    0.828E-02
RMM:   4    -0.827726580797E+02    0.18674E-03   -0.27801E-04  2275   0.109E-01    0.407E-02
RMM:   5    -0.827726408810E+02    0.17199E-04   -0.93085E-05  1929   0.587E-02    0.216E-02
RMM:   6    -0.827726383037E+02    0.25773E-05   -0.68799E-05  1819   0.466E-02
  68 F= -.85896793E+02 E0= -.85899104E+02  d E =-.236466E-02
       N       E                     dE             d eps       ncg     rms          rms(c)
DAV:   1    -0.827728875729E+02   -0.24669E-03   -0.17929E-03  2384   0.209E-01    0.130E-02
RMM:   2    -0.827728947690E+02   -0.71961E-05   -0.91806E-05  1786   0.594E-02
  69 F= -.85897011E+02 E0= -.85899327E+02  d E =-.218108E-03
       N       E                     dE             d eps       ncg     rms          rms(c)
DAV:   1    -0.827734554951E+02   -0.56792E-03   -0.16035E-02  2000   0.620E-01    0.391E-02
RMM:   2    -0.827735194835E+02   -0.63988E-04   -0.79719E-04  2721   0.175E-01    0.272E-02
RMM:   3    -0.827735317677E+02   -0.12284E-04   -0.13415E-04  2025   0.536E-02    0.234E-02
RMM:   4    -0.827735233193E+02    0.84483E-05   -0.28010E-05  1348   0.477E-02
  70 F= -.85897525E+02 E0= -.85899825E+02  d E =-.732171E-03
       N       E                     dE             d eps       ncg     rms          rms(c)
DAV:   1    -0.827738712600E+02   -0.33949E-03   -0.63353E-02  2000   0.123E+00    0.771E-02
RMM:   2    -0.827741205216E+02   -0.24926E-03   -0.30533E-03  2743   0.343E-01    0.507E-02
RMM:   3    -0.827741850768E+02   -0.64555E-04   -0.52529E-04  2513   0.103E-01    0.479E-02
RMM:   4    -0.827741290126E+02    0.56064E-04   -0.12753E-04  2102   0.733E-02    0.294E-02
RMM:   5    -0.827741259760E+02    0.30366E-05   -0.29622E-05  1410   0.356E-02
  71 F= -.85897901E+02 E0= -.85900220E+02  d E =-.110859E-02
       N       E                     dE             d eps       ncg     rms          rms(c)
DAV:   1    -0.827742911506E+02   -0.16214E-03   -0.17113E-03  2384   0.213E-01    0.115E-02
RMM:   2    -0.827743000951E+02   -0.89444E-05   -0.73822E-05  1779   0.594E-02
  72 F= -.85898064E+02 E0= -.85900382E+02  d E =-.162244E-03
       N       E                     dE             d eps       ncg     rms          rms(c)
DAV:   1    -0.827747376287E+02   -0.44648E-03   -0.15717E-02  2000   0.615E-01    0.360E-02
RMM:   2    -0.827747924785E+02   -0.54850E-04   -0.46003E-04  2610   0.142E-01    0.293E-02
RMM:   3    -0.827747802074E+02    0.12271E-04   -0.87375E-05  1820   0.542E-02    0.229E-02
RMM:   4    -0.827747709943E+02    0.92130E-05   -0.20300E-05  1292   0.481E-02
  73 F= -.85898499E+02 E0= -.85900792E+02  d E =-.597690E-03
       N       E                     dE             d eps       ncg     rms          rms(c)
DAV:   1    -0.827754309456E+02   -0.65074E-03   -0.61226E-02  2000   0.121E+00    0.635E-02
RMM:   2    -0.827755872756E+02   -0.15633E-03   -0.16192E-03  2700   0.264E-01    0.433E-02
RMM:   3    -0.827755993537E+02   -0.12078E-04   -0.32322E-04  2504   0.916E-02    0.429E-02
RMM:   4    -0.827755532296E+02    0.46124E-04   -0.49862E-05  1647   0.542E-02    0.217E-02
RMM:   5    -0.827755556454E+02   -0.24157E-05   -0.24229E-05  1375   0.341E-02
  74 F= -.85899214E+02 E0= -.85901474E+02  d E =-.131226E-02
       N       E                     dE             d eps       ncg     rms          rms(c)
DAV:   1    -0.827759670246E+02   -0.41379E-03   -0.24569E-01  2000   0.243E+00    0.126E-01
RMM:   2    -0.827764982110E+02   -0.53119E-03   -0.61811E-03  2657   0.519E-01    0.792E-02
RMM:   3    -0.827766393151E+02   -0.14110E-03   -0.13136E-03  2738   0.177E-01    0.837E-02
RMM:   4    -0.827764549910E+02    0.18432E-03   -0.24124E-04  2352   0.905E-02    0.430E-02
RMM:   5    -0.827764583514E+02   -0.33604E-05   -0.66856E-05  1835   0.538E-02
  75 F= -.85899980E+02 E0= -.85902172E+02  d E =-.207811E-02
       N       E                     dE             d eps       ncg     rms          rms(c)
DAV:   1    -0.827768815548E+02   -0.42656E-03   -0.42640E-02  2000   0.102E+00    0.492E-02
RMM:   2    -0.827770102095E+02   -0.12865E-03   -0.14007E-03  2744   0.232E-01    0.276E-02
RMM:   3    -0.827770261224E+02   -0.15913E-04   -0.20759E-04  2091   0.663E-02    0.193E-02
RMM:   4    -0.827770400182E+02   -0.13896E-04   -0.40758E-05  1450   0.550E-02    0.191E-02
RMM:   5    -0.827770336147E+02    0.64034E-05   -0.15211E-05  1259   0.347E-02
  76 F= -.85900553E+02 E0= -.85902752E+02  d E =-.573758E-03
       N       E                     dE             d eps       ncg     rms          rms(c)
DAV:   1    -0.827769585012E+02    0.81517E-04   -0.26414E-01  2000   0.251E+00    0.119E-01
RMM:   2    -0.827776541824E+02   -0.69568E-03   -0.77677E-03  2811   0.510E-01    0.673E-02
RMM:   3    -0.827776958683E+02   -0.41686E-04   -0.92230E-04  2681   0.142E-01    0.413E-02
RMM:   4    -0.827777538777E+02   -0.58009E-04   -0.23414E-04  2444   0.770E-02    0.469E-02
RMM:   5    -0.827777067425E+02    0.47135E-04   -0.73603E-05  1893   0.533E-02    0.171E-02
RMM:   6    -0.827777049771E+02    0.17653E-05   -0.23928E-05  1348   0.412E-02
  77 F= -.85901221E+02 E0= -.85903373E+02  d E =-.124172E-02
       N       E                     dE             d eps       ncg     rms          rms(c)
DAV:   1    -0.827781054940E+02   -0.39875E-03   -0.54098E-02  2000   0.111E+00    0.542E-02
RMM:   2    -0.827782400539E+02   -0.13456E-03   -0.13544E-03  2575   0.243E-01    0.383E-02
RMM:   3    -0.827782623475E+02   -0.22294E-04   -0.28780E-04  2293   0.858E-02    0.337E-02
RMM:   4    -0.827782353755E+02    0.26972E-04   -0.49861E-05  1614   0.557E-02    0.154E-02
RMM:   5    -0.827782362860E+02   -0.91052E-06   -0.18824E-05  1316   0.374E-02
  78 F= -.85901758E+02 E0= -.85903892E+02  d E =-.536737E-03
       N       E                     dE             d eps       ncg     rms          rms(c)
DAV:   1    -0.827780175443E+02    0.21783E-03   -0.27265E-01  2000   0.249E+00    0.121E-01
RMM:   2    -0.827786681322E+02   -0.65059E-03   -0.64989E-03  2599   0.529E-01    0.872E-02
RMM:   3    -0.827787732777E+02   -0.10515E-03   -0.15278E-03  2704   0.190E-01    0.748E-02
RMM:   4    -0.827786558830E+02    0.11739E-03   -0.31512E-04  2347   0.979E-02    0.366E-02
RMM:   5    -0.827786450371E+02    0.10846E-04   -0.74178E-05  1837   0.631E-02    0.195E-02
RMM:   6    -0.827786448920E+02    0.14514E-06   -0.34721E-05  1544   0.414E-02
  79 F= -.85902181E+02 E0= -.85904288E+02  d E =-.959827E-03
       N       E                     dE             d eps       ncg     rms          rms(c)
DAV:   1    -0.827788956257E+02   -0.25059E-03   -0.18315E-02  2096   0.660E-01    0.337E-02
RMM:   2    -0.827789417938E+02   -0.46168E-04   -0.51817E-04  2516   0.157E-01    0.181E-02
RMM:   3    -0.827789519365E+02   -0.10143E-04   -0.10429E-04  1747   0.468E-02    0.115E-02
RMM:   4    -0.827789575144E+02   -0.55779E-05   -0.23729E-05  1317   0.487E-02
  80 F= -.85902503E+02 E0= -.85904614E+02  d E =-.322354E-03
       N       E                     dE             d eps       ncg     rms          rms(c)
DAV:   1    -0.827792627627E+02   -0.31083E-03   -0.16757E-01  2000   0.198E+00    0.103E-01
RMM:   2    -0.827795874308E+02   -0.32467E-03   -0.38665E-03  2658   0.410E-01    0.573E-02
RMM:   3    -0.827796705901E+02   -0.83159E-04   -0.87433E-04  2628   0.126E-01    0.381E-02
RMM:   4    -0.827796885374E+02   -0.17947E-04   -0.18955E-04  2246   0.744E-02    0.362E-02
RMM:   5    -0.827796574957E+02    0.31042E-04   -0.43110E-05  1585   0.542E-02    0.102E-02
RMM:   6    -0.827796593631E+02   -0.18674E-05   -0.19770E-05  1335   0.291E-02
  81 F= -.85903235E+02 E0= -.85905312E+02  d E =-.105441E-02
       N       E                     dE             d eps       ncg     rms          rms(c)
DAV:   1    -0.827785771595E+02    0.10803E-02   -0.66847E-01  2000   0.396E+00    0.203E-01
RMM:   2    -0.827798396908E+02   -0.12625E-02   -0.14988E-02  2682   0.795E-01    0.114E-01
RMM:   3    -0.827801467151E+02   -0.30702E-03   -0.34979E-03  2796   0.250E-01    0.687E-02
RMM:   4    -0.827802797679E+02   -0.13305E-03   -0.79530E-04  2696   0.135E-01    0.732E-02
RMM:   5    -0.827801184420E+02    0.16133E-03   -0.17016E-04  2149   0.739E-02    0.221E-02
RMM:   6    -0.827801247019E+02   -0.62599E-05   -0.76053E-05  1769   0.499E-02
  82 F= -.85903765E+02 E0= -.85905796E+02  d E =-.158399E-02
       N       E                     dE             d eps       ncg     rms          rms(c)
DAV:   1    -0.827804636382E+02   -0.34520E-03   -0.12785E-02  2224   0.547E-01    0.400E-02
RMM:   2    -0.827805494353E+02   -0.85797E-04   -0.79773E-04  2786   0.146E-01    0.422E-02
RMM:   3    -0.827805207017E+02    0.28734E-04   -0.83578E-05  1837   0.510E-02    0.210E-02
RMM:   4    -0.827805143879E+02    0.63138E-05   -0.33920E-05  1464   0.459E-02
  83 F= -.85904074E+02 E0= -.85906117E+02  d E =-.308926E-03
       N       E                     dE             d eps       ncg     rms          rms(c)
DAV:   1    -0.827805697908E+02   -0.49089E-04   -0.35700E-03  2400   0.295E-01    0.241E-02
RMM:   2    -0.827806087840E+02   -0.38993E-04   -0.26699E-04  2533   0.844E-02    0.305E-02
RMM:   3    -0.827805836653E+02    0.25119E-04   -0.26581E-05  1341   0.367E-02    0.134E-02
RMM:   4    -0.827805833746E+02    0.29067E-06   -0.13171E-05  1248   0.311E-02
  84 F= -.85904099E+02 E0= -.85906158E+02  d E =-.334427E-03
       N       E                     dE             d eps       ncg     rms          rms(c)
DAV:   1    -0.827810142225E+02   -0.43056E-03   -0.41213E-03  2000   0.314E-01    0.225E-02
RMM:   2    -0.827810332879E+02   -0.19065E-04   -0.21384E-04  2442   0.915E-02    0.119E-02
RMM:   3    -0.827810365188E+02   -0.32309E-05   -0.29915E-05  1354   0.350E-02
  85 F= -.85904391E+02 E0= -.85906486E+02  d E =-.291214E-03
       N       E                     dE             d eps       ncg     rms          rms(c)
DAV:   1    -0.827819604190E+02   -0.92713E-03   -0.36997E-02  2000   0.936E-01    0.663E-02
RMM:   2    -0.827820823283E+02   -0.12191E-03   -0.16211E-03  2510   0.281E-01    0.338E-02
RMM:   3    -0.827821261820E+02   -0.43854E-04   -0.35207E-04  2449   0.922E-02    0.337E-02
RMM:   4    -0.827820971317E+02    0.29050E-04   -0.93752E-05  1911   0.582E-02    0.214E-02
RMM:   5    -0.827820955998E+02    0.15318E-05   -0.24536E-05  1370   0.314E-02
  86 F= -.85904966E+02 E0= -.85907083E+02  d E =-.866231E-03
       N       E                     dE             d eps       ncg     rms          rms(c)
DAV:   1    -0.827824517307E+02   -0.35460E-03   -0.14683E-01  2000   0.187E+00    0.132E-01
RMM:   2    -0.827829776518E+02   -0.52592E-03   -0.68138E-03  2691   0.524E-01    0.615E-02
RMM:   3    -0.827831083951E+02   -0.13074E-03   -0.10237E-03  2705   0.157E-01    0.663E-02
RMM:   4    -0.827829782392E+02    0.13016E-03   -0.28672E-04  2394   0.871E-02    0.393E-02
RMM:   5    -0.827829728577E+02    0.53815E-05   -0.81872E-05  1912   0.461E-02
  87 F= -.85904883E+02 E0= -.85907083E+02  d E =-.783360E-03
       N       E                     dE             d eps       ncg     rms          rms(c)
DAV:   1    -0.827825106030E+02    0.46764E-03   -0.46418E-02  2000   0.105E+00    0.685E-02
RMM:   2    -0.827826765924E+02   -0.16599E-03   -0.20526E-03  2643   0.296E-01    0.309E-02
RMM:   3    -0.827826974508E+02   -0.20858E-04   -0.29706E-04  2359   0.808E-02    0.278E-02
RMM:   4    -0.827826902944E+02    0.71564E-05   -0.75287E-05  1835   0.541E-02
  88 F= -.85905138E+02 E0= -.85907311E+02  d E =-.103882E-02
       N       E                     dE             d eps       ncg     rms          rms(c)
DAV:   1    -0.827830902945E+02   -0.39284E-03   -0.41688E-02  2000   0.981E-01    0.571E-02
RMM:   2    -0.827832000345E+02   -0.10974E-03   -0.14240E-03  2683   0.204E-01    0.220E-02
RMM:   3    -0.827832136318E+02   -0.13597E-04   -0.15101E-04  2009   0.599E-02    0.226E-02
RMM:   4    -0.827832031983E+02    0.10433E-04   -0.24875E-05  1317   0.454E-02    0.168E-02
RMM:   5    -0.827832023203E+02    0.87800E-06   -0.70886E-06  1216   0.224E-02
  89 F= -.85905368E+02 E0= -.85907540E+02  d E =-.229489E-03
       N       E                     dE             d eps       ncg     rms          rms(c)
DAV:   1    -0.827832852524E+02   -0.82054E-04   -0.32084E-03  2256   0.274E-01    0.170E-02
RMM:   2    -0.827832926632E+02   -0.74108E-05   -0.11193E-04  1828   0.650E-02    0.792E-03
RMM:   3    -0.827832932815E+02   -0.61830E-06   -0.14883E-05  1215   0.310E-02
  90 F= -.85905379E+02 E0= -.85907546E+02  d E =-.240995E-03
       N       E                     dE             d eps       ncg     rms          rms(c)
DAV:   1    -0.827836496362E+02   -0.35697E-03   -0.25447E-02  2000   0.758E-01    0.383E-02
RMM:   2    -0.827837374303E+02   -0.87794E-04   -0.83231E-04  2659   0.172E-01    0.302E-02
RMM:   3    -0.827837324263E+02    0.50040E-05   -0.96865E-05  1755   0.547E-02
  91 F= -.85905577E+02 E0= -.85907765E+02  d E =-.197451E-03
       N       E                     dE             d eps       ncg     rms          rms(c)
DAV:   1    -0.827840470318E+02   -0.30960E-03   -0.55634E-02  2000   0.112E+00    0.584E-02
RMM:   2    -0.827842167103E+02   -0.16968E-03   -0.18712E-03  2735   0.255E-01    0.401E-02
RMM:   3    -0.827842230497E+02   -0.63395E-05   -0.20901E-04  2020   0.707E-02    0.310E-02
RMM:   4    -0.827842238233E+02   -0.77362E-06   -0.54257E-05  1660   0.576E-02
  92 F= -.85905711E+02 E0= -.85907865E+02  d E =-.332082E-03
       N       E                     dE             d eps       ncg     rms          rms(c)
DAV:   1    -0.827843992179E+02   -0.17617E-03   -0.37032E-03  2000   0.296E-01    0.225E-02
RMM:   2    -0.827844162914E+02   -0.17074E-04   -0.15343E-04  2205   0.737E-02    0.168E-02
RMM:   3    -0.827844131250E+02    0.31664E-05   -0.17372E-05  1281   0.348E-02
  93 F= -.85905803E+02 E0= -.85907984E+02  d E =-.911146E-04
       N       E                     dE             d eps       ncg     rms          rms(c)
DAV:   1    -0.827848388787E+02   -0.42259E-03   -0.32892E-02  2000   0.850E-01    0.455E-02
RMM:   2    -0.827849217393E+02   -0.82861E-04   -0.89516E-04  2621   0.182E-01    0.321E-02
RMM:   3    -0.827849350998E+02   -0.13361E-04   -0.15341E-04  2016   0.626E-02    0.303E-02
RMM:   4    -0.827849144766E+02    0.20623E-04   -0.28310E-05  1401   0.472E-02    0.152E-02
RMM:   5    -0.827849157379E+02   -0.12613E-05   -0.10195E-05  1217   0.281E-02
  94 F= -.85906011E+02 E0= -.85908171E+02  d E =-.299431E-03
