       N       E                     dE             d eps       ncg     rms          rms(c)
DAV:   1     0.269732253577E+04    0.26973E+04   -0.87521E+04  6592   0.231E+03
DAV:   2     0.523110450910E+03   -0.21742E+04   -0.20979E+04  5360   0.750E+02
DAV:   3    -0.892211599484E+01   -0.53203E+03   -0.50634E+03  6200   0.266E+02
DAV:   4    -0.770270860320E+02   -0.68105E+02   -0.66503E+02  7080   0.988E+01
DAV:   5    -0.827226861502E+02   -0.56956E+01   -0.56194E+01  8144   0.270E+01    0.262E+01
RMM:   6    -0.805730492485E+02    0.21496E+01   -0.62538E+01  6784   0.181E+01    0.204E+01
RMM:   7    -0.810558207995E+02   -0.48277E+00   -0.17523E+01  7503   0.102E+01    0.170E+01
RMM:   8    -0.788280080306E+02    0.22278E+01   -0.49484E+00  7953   0.612E+00    0.149E+01
RMM:   9    -0.754575065309E+02    0.33705E+01   -0.29420E+00  7792   0.411E+00    0.661E+00
RMM:  10    -0.753746232849E+02    0.82883E-01   -0.54950E+00  8811   0.398E+00    0.450E+00
RMM:  11    -0.751541646193E+02    0.22046E+00   -0.94179E-01  9012   0.229E+00    0.182E+00
RMM:  12    -0.751724494676E+02   -0.18285E-01   -0.40720E-01  8883   0.165E+00    0.117E+00
RMM:  13    -0.751747475704E+02   -0.22981E-02   -0.26962E-01  9093   0.117E+00    0.325E-01
RMM:  14    -0.751950713577E+02   -0.20324E-01   -0.21286E-01  9290   0.872E-01    0.308E-01
RMM:  15    -0.752092074435E+02   -0.14136E-01   -0.14781E-01  9308   0.752E-01    0.199E-01
RMM:  16    -0.752176849457E+02   -0.84775E-02   -0.91752E-02  9034   0.709E-01    0.155E-01
RMM:  17    -0.752264596496E+02   -0.87747E-02   -0.93851E-02  9174   0.627E-01    0.136E-01
RMM:  18    -0.752325140808E+02   -0.60544E-02   -0.65608E-02  9190   0.562E-01    0.693E-02
RMM:  19    -0.752395225367E+02   -0.70085E-02   -0.71387E-02  9203   0.504E-01    0.698E-02
RMM:  20    -0.752437799333E+02   -0.42574E-02   -0.43259E-02  9126   0.471E-01    0.477E-02
RMM:  21    -0.752488380627E+02   -0.50581E-02   -0.50826E-02  9023   0.430E-01    0.626E-02
RMM:  22    -0.752519750611E+02   -0.31370E-02   -0.31547E-02  9011   0.408E-01    0.667E-02
RMM:  23    -0.752557446044E+02   -0.37695E-02   -0.38166E-02  8928   0.377E-01    0.327E-02
RMM:  24    -0.752580421712E+02   -0.22976E-02   -0.23581E-02  8816   0.354E-01    0.269E-02
RMM:  25    -0.752608420843E+02   -0.27999E-02   -0.29665E-02  8672   0.331E-01    0.549E-02
RMM:  26    -0.752626548092E+02   -0.18127E-02   -0.19264E-02  8613   0.314E-01    0.827E-02
RMM:  27    -0.752649208499E+02   -0.22660E-02   -0.24265E-02  8585   0.299E-01    0.995E-02
RMM:  28    -0.752663716848E+02   -0.14508E-02   -0.15990E-02  8492   0.284E-01    0.119E-01
RMM:  29    -0.752681973865E+02   -0.18257E-02   -0.20120E-02  8514   0.274E-01    0.124E-01
RMM:  30    -0.752694556751E+02   -0.12583E-02   -0.13623E-02  8464   0.263E-01    0.151E-01
RMM:  31    -0.752710402673E+02   -0.15846E-02   -0.17190E-02  8278   0.250E-01    0.172E-01
RMM:  32    -0.752720479971E+02   -0.10077E-02   -0.11653E-02  8163   0.240E-01    0.184E-01
RMM:  33    -0.752733785702E+02   -0.13306E-02   -0.14793E-02  7966   0.230E-01    0.201E-01
RMM:  34    -0.752742726479E+02   -0.89408E-03   -0.10155E-02  7886   0.222E-01    0.212E-01
RMM:  35    -0.752754259783E+02   -0.11533E-02   -0.12880E-02  7816   0.215E-01    0.226E-01
RMM:  36    -0.752761757600E+02   -0.74978E-03   -0.89285E-03  7594   0.207E-01    0.233E-01
RMM:  37    -0.752771598770E+02   -0.98412E-03   -0.11307E-02  7496   0.200E-01    0.245E-01
RMM:  38    -0.752778705204E+02   -0.71064E-03   -0.80034E-03  7491   0.195E-01    0.259E-01
RMM:  39    -0.752787400871E+02   -0.86957E-03   -0.10016E-02  7105   0.188E-01    0.271E-01
RMM:  40    -0.752793162410E+02   -0.57615E-03   -0.71476E-03  7015   0.182E-01    0.278E-01
RMM:  41    -0.752800768130E+02   -0.76057E-03   -0.89177E-03  6897   0.178E-01    0.289E-01
RMM:  42    -0.752805872465E+02   -0.51043E-03   -0.64253E-03  6649   0.173E-01    0.297E-01
RMM:  43    -0.752812370269E+02   -0.64978E-03   -0.79600E-03  6518   0.168E-01    0.304E-01
RMM:  44    -0.752816922496E+02   -0.45522E-03   -0.58544E-03  6362   0.164E-01    0.311E-01
RMM:  45    -0.752822693181E+02   -0.57707E-03   -0.71572E-03  6159   0.160E-01    0.318E-01
RMM:  46    -0.752826755701E+02   -0.40625E-03   -0.53389E-03  5931   0.156E-01    0.325E-01
RMM:  47    -0.752831927614E+02   -0.51719E-03   -0.64811E-03  5705   0.153E-01    0.332E-01
RMM:  48    -0.752835616737E+02   -0.36891E-03   -0.49304E-03  5606   0.149E-01    0.338E-01
RMM:  49    -0.752840263283E+02   -0.46465E-03   -0.58950E-03  5354   0.146E-01    0.345E-01
RMM:  50    -0.752843589906E+02   -0.33266E-03   -0.45664E-03  5283   0.142E-01    0.350E-01
RMM:  51    -0.752847461998E+02   -0.38721E-03   -0.53680E-03  5270   0.140E-01    0.355E-01
RMM:  52    -0.752850329712E+02   -0.28677E-03   -0.42336E-03  4942   0.137E-01    0.358E-01
RMM:  53    -0.752853879478E+02   -0.35498E-03   -0.49146E-03  4806   0.134E-01    0.363E-01
RMM:  54    -0.752856711908E+02   -0.28324E-03   -0.39633E-03  4548   0.131E-01    0.368E-01
RMM:  55    -0.752859969322E+02   -0.32574E-03   -0.45244E-03  4341   0.129E-01    0.373E-01
RMM:  56    -0.752863132138E+02   -0.31628E-03   -0.37722E-03  4693   0.129E-01    0.381E-01
RMM:  57    -0.752866435643E+02   -0.33035E-03   -0.41905E-03  4565   0.126E-01    0.388E-01
RMM:  58    -0.752869168662E+02   -0.27330E-03   -0.35870E-03  4525   0.124E-01    0.394E-01
RMM:  59    -0.752872194764E+02   -0.30261E-03   -0.38969E-03  4494   0.122E-01    0.402E-01
RMM:  60    -0.752874162413E+02   -0.19676E-03   -0.33814E-03  4154   0.119E-01    0.404E-01
RMM:  61    -0.752877221431E+02   -0.30590E-03   -0.36466E-03  4291   0.118E-01    0.413E-01
RMM:  62    -0.752879199814E+02   -0.19784E-03   -0.32203E-03  3870   0.116E-01    0.416E-01
RMM:  63    -0.752881438211E+02   -0.22384E-03   -0.33981E-03  3579   0.114E-01    0.420E-01
RMM:  64    -0.752883305035E+02   -0.18668E-03   -0.30613E-03  3497   0.113E-01    0.424E-01
RMM:  65    -0.752885305002E+02   -0.20000E-03   -0.31669E-03  3447   0.111E-01    0.428E-01
RMM:  66    -0.752884943443E+02    0.36156E-04   -0.28381E-03  4226   0.113E-01    0.414E-01
RMM:  67    -0.752886150936E+02   -0.12075E-03   -0.29904E-03  3999   0.110E-01    0.413E-01
RMM:  68    -0.752886779477E+02   -0.62854E-04   -0.26675E-03  4178   0.110E-01    0.409E-01
RMM:  69    -0.752888220488E+02   -0.14410E-03   -0.28127E-03  3725   0.107E-01    0.411E-01
RMM:  70    -0.752889439137E+02   -0.12186E-03   -0.25489E-03  3724   0.105E-01    0.412E-01
RMM:  71    -0.752892265069E+02   -0.28259E-03   -0.26586E-03  3835   0.107E-01    0.422E-01
RMM:  72    -0.752893297723E+02   -0.10327E-03   -0.24832E-03  3646   0.104E-01    0.421E-01
RMM:  73    -0.752894665610E+02   -0.13679E-03   -0.25054E-03  3093   0.101E-01    0.425E-01
RMM:  74    -0.752895916263E+02   -0.12507E-03   -0.23953E-03  3076   0.100E-01    0.427E-01
RMM:  75    -0.752897072703E+02   -0.11564E-03   -0.23709E-03  2958   0.994E-02    0.429E-01
RMM:  76    -0.752896697865E+02    0.37484E-04   -0.22779E-03  3692   0.102E-01    0.418E-01
RMM:  77    -0.752897903553E+02   -0.12057E-03   -0.22508E-03  3556   0.988E-02    0.421E-01
RMM:  78    -0.752899021768E+02   -0.11182E-03   -0.22148E-03  3205   0.971E-02    0.424E-01
RMM:  79    -0.752900026318E+02   -0.10046E-03   -0.21381E-03  3069   0.962E-02    0.426E-01
RMM:  80    -0.752900994742E+02   -0.96842E-04   -0.21484E-03  2852   0.953E-02    0.428E-01
RMM:  81    -0.752901046515E+02   -0.51772E-05   -0.20278E-03  3718   0.964E-02    0.421E-01
RMM:  82    -0.752901594193E+02   -0.54768E-04   -0.20742E-03  3715   0.951E-02    0.421E-01
RMM:  83    -0.752900849251E+02    0.74494E-04   -0.19249E-03  4400   0.967E-02    0.412E-01
RMM:  84    -0.752900804640E+02    0.44611E-05   -0.19941E-03  3745   0.947E-02    0.407E-01
RMM:  85    -0.752900732490E+02    0.72150E-05   -0.18369E-03  3860   0.943E-02    0.404E-01
RMM:  86    -0.752897666040E+02    0.30665E-03   -0.19111E-03  5433   0.106E-01    0.374E-01
RMM:  87    -0.752896165069E+02    0.15010E-03   -0.18833E-03  4891   0.100E-01    0.357E-01
RMM:  88    -0.752897070082E+02   -0.90501E-04   -0.17726E-03  4072   0.927E-02    0.359E-01
RMM:  89    -0.752897713338E+02   -0.64326E-04   -0.17388E-03  3271   0.896E-02    0.361E-01
RMM:  90    -0.752898579121E+02   -0.86578E-04   -0.17277E-03  3086   0.882E-02    0.364E-01
RMM:  91    -0.752902508169E+02   -0.39290E-03   -0.16548E-03  4994   0.102E-01    0.388E-01
RMM:  92    -0.752898407417E+02    0.41008E-03   -0.17038E-03  4777   0.982E-02    0.353E-01
RMM:  93    -0.752900020806E+02   -0.16134E-03   -0.16163E-03  3335   0.899E-02    0.363E-01
RMM:  94    -0.752900556420E+02   -0.53561E-04   -0.16511E-03  3105   0.862E-02    0.364E-01
RMM:  95    -0.752901773753E+02   -0.12173E-03   -0.15402E-03  3639   0.862E-02    0.370E-01
RMM:  96    -0.752894969161E+02    0.68046E-03   -0.16620E-03  5416   0.111E-01    0.300E-01
RMM:  97    -0.752895927105E+02   -0.95794E-04   -0.16509E-03  4414   0.938E-02    0.295E-01
RMM:  98    -0.752898657006E+02   -0.27299E-03   -0.15053E-03  4548   0.917E-02    0.310E-01
RMM:  99    -0.752900183373E+02   -0.15264E-03   -0.15143E-03  3785   0.900E-02    0.317E-01
RMM: 100    -0.752902202227E+02   -0.20189E-03   -0.15989E-03  4805   0.943E-02
   1 F= -.78044179E+02 E0= -.78043447E+02  d E =-.780442E+02
       N       E                     dE             d eps       ncg     rms          rms(c)
DAV:   1    -0.752869182952E+02    0.31000E-02   -0.11637E+01  6096   0.114E+01    0.770E-01
RMM:   2    -0.753475022691E+02   -0.60584E-01   -0.55790E-01  7236   0.288E+00    0.986E-01
RMM:   3    -0.753577195096E+02   -0.10217E-01   -0.16659E-01  7727   0.151E+00    0.808E-01
RMM:   4    -0.753548183068E+02    0.29012E-02   -0.43312E-02  7794   0.739E-01    0.271E-01
RMM:   5    -0.753559197286E+02   -0.11014E-02   -0.16578E-02  7935   0.415E-01    0.232E-01
RMM:   6    -0.753558392346E+02    0.80494E-04   -0.68801E-03  7796   0.249E-01    0.164E-01
RMM:   7    -0.753560300811E+02   -0.19085E-03   -0.34006E-03  7658   0.172E-01    0.442E-02
RMM:   8    -0.753562058911E+02   -0.17581E-03   -0.20849E-03  7204   0.122E-01    0.220E-02
RMM:   9    -0.753563183582E+02   -0.11247E-03   -0.13250E-03  6446   0.920E-02    0.167E-02
RMM:  10    -0.753564108040E+02   -0.92446E-04   -0.10080E-03  5839   0.746E-02    0.183E-02
RMM:  11    -0.753564752635E+02   -0.64460E-04   -0.70747E-04  5385   0.632E-02    0.157E-02
RMM:  12    -0.753565283468E+02   -0.53083E-04   -0.59239E-04  4988   0.550E-02    0.675E-03
RMM:  13    -0.753565689036E+02   -0.40557E-04   -0.45152E-04  4927   0.495E-02    0.288E-03
RMM:  14    -0.753566042836E+02   -0.35380E-04   -0.40573E-04  4555   0.449E-02    0.291E-03
RMM:  15    -0.753566314293E+02   -0.27146E-04   -0.32433E-04  4428   0.415E-02    0.281E-03
RMM:  16    -0.753566571616E+02   -0.25732E-04   -0.30627E-04  4287   0.391E-02    0.160E-03
RMM:  17    -0.753566762344E+02   -0.19073E-04   -0.24981E-04  4010   0.366E-02    0.222E-03
RMM:  18    -0.753566951015E+02   -0.18867E-04   -0.24487E-04  3794   0.350E-02    0.302E-03
RMM:  19    -0.753567099412E+02   -0.14840E-04   -0.20380E-04  3544   0.331E-02    0.406E-03
RMM:  20    -0.753567248583E+02   -0.14917E-04   -0.20411E-04  3355   0.321E-02    0.445E-03
RMM:  21    -0.753567366654E+02   -0.11807E-04   -0.17322E-04  3190   0.309E-02    0.518E-03
RMM:  22    -0.753567485739E+02   -0.11909E-04   -0.17409E-04  3119   0.301E-02    0.589E-03
RMM:  23    -0.753567582836E+02   -0.97097E-05   -0.15073E-04  3000   0.291E-02    0.628E-03
RMM:  24    -0.753567681582E+02   -0.98746E-05   -0.15292E-04  2939   0.285E-02    0.678E-03
RMM:  25    -0.753567762340E+02   -0.80758E-05   -0.13415E-04  2895   0.276E-02    0.709E-03
RMM:  26    -0.753567846126E+02   -0.83787E-05   -0.13765E-04  2897   0.274E-02    0.744E-03
RMM:  27    -0.753567914606E+02   -0.68480E-05   -0.12200E-04  2806   0.268E-02    0.775E-03
RMM:  28    -0.753567985107E+02   -0.70501E-05   -0.12465E-04  2836   0.265E-02    0.813E-03
RMM:  29    -0.753568043851E+02   -0.58744E-05   -0.11197E-04  2751   0.260E-02    0.849E-03
RMM:  30    -0.753568104128E+02   -0.60276E-05   -0.11316E-04  2784   0.257E-02    0.831E-03
RMM:  31    -0.753568156209E+02   -0.52081E-05   -0.10484E-04  2835   0.253E-02    0.810E-03
RMM:  32    -0.753568208123E+02   -0.51914E-05   -0.10451E-04  2820   0.250E-02    0.796E-03
RMM:  33    -0.753568253100E+02   -0.44977E-05   -0.98057E-05  2725   0.247E-02
   2 F= -.78112860E+02 E0= -.78112124E+02  d E =-.686803E-01
       N       E                     dE             d eps       ncg     rms          rms(c)
DAV:   1    -0.747797876696E+02    0.57703E+00   -0.10556E+02  5608   0.356E+01    0.195E+00
RMM:   2    -0.752892753425E+02   -0.50949E+00   -0.54059E+00  7126   0.903E+00    0.964E-01
RMM:   3    -0.754476923895E+02   -0.15842E+00   -0.14397E+00  7961   0.467E+00    0.159E+00
RMM:   4    -0.754609891780E+02   -0.13297E-01   -0.42532E-01  8052   0.228E+00    0.879E-01
RMM:   5    -0.754687572293E+02   -0.77681E-02   -0.13019E-01  8077   0.122E+00    0.557E-01
RMM:   6    -0.754736489676E+02   -0.48917E-02   -0.62542E-02  8021   0.736E-01    0.468E-01
RMM:   7    -0.754743841762E+02   -0.73521E-03   -0.26317E-02  7900   0.504E-01    0.138E-01
RMM:   8    -0.754759516823E+02   -0.15675E-02   -0.19146E-02  7987   0.362E-01    0.974E-02
RMM:   9    -0.754766817471E+02   -0.73006E-03   -0.95708E-03  7602   0.271E-01    0.590E-02
RMM:  10    -0.754776086963E+02   -0.92695E-03   -0.98959E-03  7392   0.224E-01    0.671E-02
RMM:  11    -0.754780518437E+02   -0.44315E-03   -0.49702E-03  6908   0.181E-01    0.565E-02
RMM:  12    -0.754785523462E+02   -0.50050E-03   -0.58482E-03  6571   0.162E-01    0.188E-02
RMM:  13    -0.754788006916E+02   -0.24835E-03   -0.29378E-03  6100   0.137E-01    0.211E-02
RMM:  14    -0.754791582199E+02   -0.35753E-03   -0.40680E-03  5644   0.126E-01    0.804E-03
RMM:  15    -0.754793141614E+02   -0.15594E-03   -0.20127E-03  5301   0.112E-01    0.100E-02
RMM:  16    -0.754795749047E+02   -0.26074E-03   -0.30698E-03  5118   0.105E-01    0.336E-03
RMM:  17    -0.754796763523E+02   -0.10145E-03   -0.14653E-03  4713   0.966E-02    0.315E-03
RMM:  18    -0.754798781726E+02   -0.20182E-03   -0.24706E-03  4579   0.924E-02    0.572E-03
RMM:  19    -0.754799476464E+02   -0.69474E-04   -0.11402E-03  4368   0.863E-02    0.141E-02
RMM:  20    -0.754801114410E+02   -0.16379E-03   -0.20702E-03  4272   0.829E-02    0.143E-02
RMM:  21    -0.754801617746E+02   -0.50334E-04   -0.92437E-04  4155   0.788E-02    0.133E-02
RMM:  22    -0.754802982238E+02   -0.13645E-03   -0.17893E-03  3955   0.767E-02    0.155E-02
RMM:  23    -0.754803345258E+02   -0.36302E-04   -0.77408E-04  3723   0.732E-02    0.175E-02
RMM:  24    -0.754804511819E+02   -0.11666E-03   -0.15792E-03  3698   0.716E-02    0.165E-02
RMM:  25    -0.754804773633E+02   -0.26181E-04   -0.66336E-04  3612   0.690E-02    0.165E-02
RMM:  26    -0.754805789618E+02   -0.10160E-03   -0.14190E-03  3625   0.677E-02    0.167E-02
RMM:  27    -0.754805976701E+02   -0.18708E-04   -0.57911E-04  3312   0.653E-02    0.173E-02
RMM:  28    -0.754806874618E+02   -0.89792E-04   -0.12924E-03  3230   0.646E-02    0.194E-02
RMM:  29    -0.754807004706E+02   -0.13009E-04   -0.51343E-04  3101   0.623E-02    0.195E-02
RMM:  30    -0.754807806780E+02   -0.80207E-04   -0.11880E-03  3088   0.618E-02    0.211E-02
RMM:  31    -0.754807893212E+02   -0.86432E-05   -0.46273E-04  2974   0.602E-02    0.219E-02
RMM:  32    -0.754808614926E+02   -0.72171E-04   -0.11009E-03  2995   0.597E-02    0.231E-02
RMM:  33    -0.754808667454E+02   -0.52528E-05   -0.42216E-04  2982   0.583E-02    0.238E-02
RMM:  34    -0.754809322276E+02   -0.65482E-04   -0.10265E-03  2847   0.577E-02    0.252E-02
RMM:  35    -0.754809343674E+02   -0.21398E-05   -0.38584E-04  2869   0.566E-02    0.258E-02
RMM:  36    -0.754809941567E+02   -0.59789E-04   -0.96416E-04  2828   0.562E-02    0.269E-02
RMM:  37    -0.754809939011E+02    0.25564E-06   -0.35677E-04  2837   0.552E-02    0.274E-02
RMM:  38    -0.754810487030E+02   -0.54802E-04   -0.90851E-04  2794   0.548E-02    0.284E-02
RMM:  39    -0.754810464407E+02    0.22623E-05   -0.33180E-04  2769   0.539E-02    0.288E-02
RMM:  40    -0.754810967534E+02   -0.50313E-04   -0.85908E-04  2773   0.535E-02    0.297E-02
RMM:  41    -0.754810928723E+02    0.38810E-05   -0.31112E-04  2783   0.527E-02    0.302E-02
RMM:  42    -0.754811392259E+02   -0.46354E-04   -0.81550E-04  2723   0.524E-02    0.309E-02
RMM:  43    -0.754811338803E+02    0.53455E-05   -0.29306E-04  2740   0.517E-02    0.312E-02
RMM:  44    -0.754811767335E+02   -0.42853E-04   -0.77732E-04  2724   0.516E-02    0.319E-02
RMM:  45    -0.754811700811E+02    0.66523E-05   -0.27617E-04  2699   0.507E-02    0.323E-02
RMM:  46    -0.754812098299E+02   -0.39749E-04   -0.74288E-04  2736   0.507E-02    0.329E-02
RMM:  47    -0.754812023333E+02    0.74966E-05   -0.26327E-04  2681   0.498E-02    0.343E-02
RMM:  48    -0.754812390188E+02   -0.36685E-04   -0.70961E-04  2699   0.498E-02    0.348E-02
RMM:  49    -0.754812303914E+02    0.86274E-05   -0.25128E-04  2672   0.492E-02    0.350E-02
RMM:  50    -0.754812644123E+02   -0.34021E-04   -0.68075E-04  2678   0.490E-02    0.352E-02
RMM:  51    -0.754812550325E+02    0.93798E-05   -0.24143E-04  2691   0.485E-02    0.356E-02
RMM:  52    -0.754812862467E+02   -0.31214E-04   -0.65397E-04  2919   0.485E-02    0.331E-02
RMM:  53    -0.754812761869E+02    0.10060E-04   -0.23220E-04  2808   0.479E-02    0.337E-02
RMM:  54    -0.754813056336E+02   -0.29447E-04   -0.63038E-04  2644   0.478E-02    0.342E-02
RMM:  55    -0.754812949407E+02    0.10693E-04   -0.22406E-04  2614   0.472E-02    0.349E-02
RMM:  56    -0.754813225810E+02   -0.27640E-04   -0.61009E-04  2667   0.474E-02    0.359E-02
RMM:  57    -0.754813115944E+02    0.10987E-04   -0.21773E-04  2646   0.468E-02    0.378E-02
RMM:  58    -0.754813373204E+02   -0.25726E-04   -0.58930E-04  2643   0.466E-02    0.388E-02
RMM:  59    -0.754813254196E+02    0.11901E-04   -0.21177E-04  2622   0.461E-02    0.384E-02
RMM:  60    -0.754813496627E+02   -0.24243E-04   -0.57295E-04  2686   0.463E-02    0.397E-02
RMM:  61    -0.754813371802E+02    0.12482E-04   -0.20541E-04  2559   0.457E-02    0.392E-02
RMM:  62    -0.754813601309E+02   -0.22951E-04   -0.55718E-04  2818   0.461E-02    0.413E-02
RMM:  63    -0.754813468390E+02    0.13292E-04   -0.20127E-04  2748   0.455E-02    0.387E-02
RMM:  64    -0.754813674700E+02   -0.20631E-04   -0.54005E-04  2750   0.455E-02    0.380E-02
RMM:  65    -0.754813541342E+02    0.13336E-04   -0.19756E-04  2755   0.450E-02    0.367E-02
RMM:  66    -0.754813737538E+02   -0.19620E-04   -0.52677E-04  2653   0.451E-02    0.370E-02
RMM:  67    -0.754813611315E+02    0.12622E-04   -0.19490E-04  2738   0.448E-02    0.397E-02
RMM:  68    -0.754813795327E+02   -0.18401E-04   -0.51397E-04  2691   0.448E-02    0.403E-02
RMM:  69    -0.754813659157E+02    0.13617E-04   -0.19130E-04  2641   0.442E-02    0.408E-02
RMM:  70    -0.754813829132E+02   -0.16997E-04   -0.50250E-04  2657   0.446E-02    0.408E-02
RMM:  71    -0.754813688314E+02    0.14082E-04   -0.18909E-04  2567   0.438E-02    0.404E-02
RMM:  72    -0.754813837335E+02   -0.14902E-04   -0.49011E-04  2977   0.442E-02    0.371E-02
RMM:  73    -0.754813694389E+02    0.14295E-04   -0.18757E-04  2770   0.438E-02    0.358E-02
RMM:  74    -0.754813841924E+02   -0.14754E-04   -0.48026E-04  2667   0.439E-02    0.351E-02
RMM:  75    -0.754813698887E+02    0.14304E-04   -0.18550E-04  2613   0.434E-02    0.351E-02
RMM:  76    -0.754813837237E+02   -0.13835E-04   -0.46990E-04  2577   0.435E-02    0.354E-02
RMM:  77    -0.754813675802E+02    0.16143E-04   -0.18563E-04  3433   0.439E-02    0.271E-02
RMM:  78    -0.754813804743E+02   -0.12894E-04   -0.46189E-04  3120   0.437E-02    0.267E-02
RMM:  79    -0.754813657237E+02    0.14751E-04   -0.18288E-04  2628   0.429E-02    0.264E-02
RMM:  80    -0.754813777243E+02   -0.12001E-04   -0.45367E-04  2598   0.430E-02    0.262E-02
RMM:  81    -0.754813626304E+02    0.15094E-04   -0.18154E-04  2604   0.428E-02    0.256E-02
RMM:  82    -0.754813735587E+02   -0.10928E-04   -0.44623E-04  2852   0.430E-02    0.242E-02
RMM:  83    -0.754813581598E+02    0.15399E-04   -0.18130E-04  2787   0.428E-02    0.234E-02
RMM:  84    -0.754813683602E+02   -0.10200E-04   -0.43878E-04  2846   0.427E-02    0.229E-02
RMM:  85    -0.754813530897E+02    0.15271E-04   -0.18069E-04  2600   0.424E-02    0.230E-02
RMM:  86    -0.754813625324E+02   -0.94427E-05   -0.43149E-04  2531   0.422E-02    0.228E-02
RMM:  87    -0.754813468876E+02    0.15645E-04   -0.18025E-04  2582   0.423E-02    0.232E-02
RMM:  88    -0.754813556785E+02   -0.87909E-05   -0.42501E-04  2579   0.422E-02    0.238E-02
RMM:  89    -0.754813401314E+02    0.15547E-04   -0.18018E-04  2518   0.420E-02    0.240E-02
RMM:  90    -0.754813480528E+02   -0.79214E-05   -0.41866E-04  2529   0.420E-02    0.241E-02
RMM:  91    -0.754813322280E+02    0.15825E-04   -0.17993E-04  2487   0.418E-02    0.240E-02
RMM:  92    -0.754813386535E+02   -0.64255E-05   -0.41302E-04  2785   0.421E-02    0.225E-02
RMM:  93    -0.754813225900E+02    0.16063E-04   -0.18048E-04  2622   0.418E-02    0.223E-02
RMM:  94    -0.754813289938E+02   -0.64038E-05   -0.40754E-04  2687   0.419E-02    0.223E-02
RMM:  95    -0.754813128017E+02    0.16192E-04   -0.18037E-04  2491   0.416E-02    0.223E-02
RMM:  96    -0.754813184771E+02   -0.56754E-05   -0.40231E-04  2524   0.417E-02    0.224E-02
RMM:  97    -0.754813018552E+02    0.16622E-04   -0.18155E-04  2769   0.416E-02    0.201E-02
RMM:  98    -0.754813053758E+02   -0.35206E-05   -0.39751E-04  3039   0.420E-02    0.184E-02
RMM:  99    -0.754812878475E+02    0.17528E-04   -0.18203E-04  3129   0.419E-02    0.162E-02
RMM: 100    -0.754812919080E+02   -0.40605E-05   -0.39257E-04  2980   0.417E-02
   3 F= -.78246407E+02 E0= -.78245890E+02  d E =-.202228E+00
       N       E                     dE             d eps       ncg     rms          rms(c)
DAV:   1    -0.720975559602E+02    0.33837E+01   -0.47033E+02  5784   0.811E+01    0.450E+00
RMM:   2    -0.747284375793E+02   -0.26309E+01   -0.26954E+01  6973   0.208E+01    0.308E+00
RMM:   3    -0.755266111058E+02   -0.79817E+00   -0.61894E+00  7990   0.998E+00    0.462E+00
RMM:   4    -0.753524792255E+02    0.17413E+00   -0.19065E+00  7979   0.479E+00    0.193E+00
RMM:   5    -0.753946564574E+02   -0.42177E-01   -0.57148E-01  8413   0.250E+00    0.158E+00
RMM:   6    -0.754134110632E+02   -0.18755E-01   -0.26502E-01  8174   0.147E+00    0.119E+00
RMM:   7    -0.754180125447E+02   -0.46015E-02   -0.12292E-01  7966   0.107E+00    0.441E-01
RMM:   8    -0.754225138415E+02   -0.45013E-02   -0.82547E-02  8325   0.760E-01    0.344E-01
RMM:   9    -0.754255742378E+02   -0.30604E-02   -0.41749E-02  7992   0.551E-01    0.261E-01
RMM:  10    -0.754293810621E+02   -0.38068E-02   -0.42843E-02  7793   0.461E-01    0.219E-01
RMM:  11    -0.754311706191E+02   -0.17896E-02   -0.21092E-02  7805   0.366E-01    0.151E-01
RMM:  12    -0.754333253027E+02   -0.21547E-02   -0.25280E-02  7326   0.324E-01    0.448E-02
RMM:  13    -0.754343896711E+02   -0.10644E-02   -0.12575E-02  7232   0.273E-01    0.688E-02
RMM:  14    -0.754359388486E+02   -0.15492E-02   -0.17499E-02  6732   0.244E-01    0.741E-02
RMM:  15    -0.754366096908E+02   -0.67084E-03   -0.85821E-03  6515   0.221E-01    0.124E-01
RMM:  16    -0.754377474103E+02   -0.11377E-02   -0.13418E-02  6338   0.211E-01    0.299E-02
RMM:  17    -0.754381988662E+02   -0.45146E-03   -0.63230E-03  5943   0.192E-01    0.185E-02
RMM:  18    -0.754390892141E+02   -0.89035E-03   -0.10719E-02  5614   0.180E-01    0.181E-02
RMM:  19    -0.754394071082E+02   -0.31789E-03   -0.49290E-03  5138   0.169E-01    0.209E-02
RMM:  20    -0.754401262996E+02   -0.71919E-03   -0.89427E-03  5070   0.162E-01    0.211E-02
RMM:  21    -0.754403595643E+02   -0.23326E-03   -0.40279E-03  4778   0.154E-01    0.302E-02
RMM:  22    -0.754409554082E+02   -0.59584E-03   -0.76689E-03  4464   0.148E-01    0.341E-02
RMM:  23    -0.754411310754E+02   -0.17567E-03   -0.33971E-03  4487   0.143E-01    0.446E-02
RMM:  24    -0.754416363253E+02   -0.50525E-03   -0.67106E-03  4374   0.139E-01    0.488E-02
RMM:  25    -0.754417698504E+02   -0.13353E-03   -0.29342E-03  4236   0.133E-01    0.532E-02
RMM:  26    -0.754422063973E+02   -0.43655E-03   -0.59691E-03  4054   0.131E-01    0.600E-02
RMM:  27    -0.754423114937E+02   -0.10510E-03   -0.25942E-03  4043   0.127E-01    0.703E-02
RMM:  28    -0.754426905083E+02   -0.37901E-03   -0.53683E-03  3670   0.124E-01    0.745E-02
RMM:  29    -0.754427695637E+02   -0.79055E-04   -0.23277E-03  3505   0.121E-01    0.774E-02
RMM:  30    -0.754431025948E+02   -0.33303E-03   -0.48748E-03  3359   0.119E-01    0.810E-02
RMM:  31    -0.754431632427E+02   -0.60648E-04   -0.21165E-03  3179   0.116E-01    0.828E-02
RMM:  32    -0.754434580831E+02   -0.29484E-03   -0.44631E-03  3125   0.114E-01    0.857E-02
RMM:  33    -0.754435047278E+02   -0.46645E-04   -0.19482E-03  3025   0.111E-01    0.874E-02
RMM:  34    -0.754437676205E+02   -0.26289E-03   -0.41151E-03  3017   0.110E-01    0.902E-02
RMM:  35    -0.754438029389E+02   -0.35318E-04   -0.18110E-03  2965   0.108E-01    0.914E-02
RMM:  36    -0.754440384748E+02   -0.23554E-03   -0.38156E-03  2944   0.107E-01    0.940E-02
RMM:  37    -0.754440648483E+02   -0.26373E-04   -0.16957E-03  2865   0.105E-01    0.955E-02
RMM:  38    -0.754442765526E+02   -0.21170E-03   -0.35545E-03  2865   0.104E-01    0.979E-02
RMM:  39    -0.754442948319E+02   -0.18279E-04   -0.15979E-03  2813   0.102E-01    0.987E-02
RMM:  40    -0.754444855109E+02   -0.19068E-03   -0.33254E-03  2816   0.101E-01    0.101E-01
RMM:  41    -0.754444973270E+02   -0.11816E-04   -0.15140E-03  2817   0.995E-02    0.101E-01
RMM:  42    -0.754446691732E+02   -0.17185E-03   -0.31227E-03  2923   0.989E-02    0.102E-01
RMM:  43    -0.754446748938E+02   -0.57206E-05   -0.14432E-03  3007   0.976E-02    0.102E-01
RMM:  44    -0.754448291239E+02   -0.15423E-03   -0.29428E-03  3079   0.971E-02    0.102E-01
RMM:  45    -0.754448315081E+02   -0.23842E-05   -0.13872E-03  2857   0.955E-02    0.103E-01
RMM:  46    -0.754449725446E+02   -0.14104E-03   -0.27829E-03  2685   0.949E-02    0.104E-01
RMM:  47    -0.754449716494E+02    0.89515E-06   -0.13385E-03  2708   0.936E-02    0.107E-01
RMM:  48    -0.754450998899E+02   -0.12824E-03   -0.26404E-03  2658   0.931E-02    0.108E-01
RMM:  49    -0.754450953035E+02    0.45864E-05   -0.12965E-03  2642   0.919E-02    0.109E-01
RMM:  50    -0.754452120894E+02   -0.11679E-03   -0.25135E-03  2648   0.915E-02    0.110E-01
RMM:  51    -0.754452048969E+02    0.71925E-05   -0.12612E-03  2605   0.904E-02    0.110E-01
RMM:  52    -0.754453151458E+02   -0.11025E-03   -0.24002E-03  3058   0.905E-02    0.117E-01
RMM:  53    -0.754453057119E+02    0.94339E-05   -0.12297E-03  2809   0.891E-02    0.118E-01
RMM:  54    -0.754454023842E+02   -0.96672E-04   -0.22946E-03  2611   0.887E-02    0.118E-01
RMM:  55    -0.754453908990E+02    0.11485E-04   -0.12038E-03  2589   0.877E-02    0.118E-01
RMM:  56    -0.754454787179E+02   -0.87819E-04   -0.21987E-03  2565   0.873E-02    0.119E-01
RMM:  57    -0.754454695735E+02    0.91445E-05   -0.11824E-03  2803   0.867E-02    0.124E-01
RMM:  58    -0.754455500111E+02   -0.80438E-04   -0.21118E-03  2670   0.864E-02    0.125E-01
RMM:  59    -0.754455368064E+02    0.13205E-04   -0.11616E-03  2601   0.853E-02    0.126E-01
RMM:  60    -0.754456106507E+02   -0.73844E-04   -0.20324E-03  2677   0.853E-02    0.127E-01
RMM:  61    -0.754455972957E+02    0.13355E-04   -0.11449E-03  2735   0.844E-02    0.128E-01
RMM:  62    -0.754456629051E+02   -0.65609E-04   -0.19658E-03  4099   0.867E-02    0.111E-01
RMM:  63    -0.754456344510E+02    0.28454E-04   -0.11296E-03  3912   0.857E-02    0.967E-02
RMM:  64    -0.754456880804E+02   -0.53629E-04   -0.18997E-03  3909   0.854E-02    0.885E-02
RMM:  65    -0.754456668080E+02    0.21272E-04   -0.11166E-03  3697   0.841E-02    0.825E-02
RMM:  66    -0.754457208327E+02   -0.54025E-04   -0.18356E-03  3747   0.838E-02    0.814E-02
RMM:  67    -0.754457015250E+02    0.19308E-04   -0.11039E-03  3456   0.824E-02    0.783E-02
RMM:  68    -0.754457516052E+02   -0.50080E-04   -0.17757E-03  3217   0.820E-02    0.778E-02
RMM:  69    -0.754457326849E+02    0.18920E-04   -0.10927E-03  3028   0.807E-02    0.733E-02
RMM:  70    -0.754457778792E+02   -0.45194E-04   -0.17222E-03  2920   0.806E-02    0.711E-02
RMM:  71    -0.754457603297E+02    0.17549E-04   -0.10815E-03  2731   0.794E-02    0.707E-02
RMM:  72    -0.754458006614E+02   -0.40332E-04   -0.16743E-03  2955   0.794E-02    0.690E-02
RMM:  73    -0.754457829184E+02    0.17743E-04   -0.10728E-03  2718   0.786E-02    0.693E-02
RMM:  74    -0.754458201363E+02   -0.37218E-04   -0.16298E-03  2491   0.783E-02    0.691E-02
RMM:  75    -0.754458014568E+02    0.18680E-04   -0.10655E-03  2620   0.777E-02    0.680E-02
RMM:  76    -0.754458344702E+02   -0.33013E-04   -0.15888E-03  2908   0.778E-02    0.656E-02
RMM:  77    -0.754458144488E+02    0.20021E-04   -0.10605E-03  3084   0.776E-02    0.618E-02
RMM:  78    -0.754458441714E+02   -0.29723E-04   -0.15514E-03  2980   0.774E-02    0.606E-02
RMM:  79    -0.754458252901E+02    0.18881E-04   -0.10533E-03  2759   0.765E-02    0.601E-02
RMM:  80    -0.754458528338E+02   -0.27544E-04   -0.15159E-03  2491   0.761E-02    0.607E-02
RMM:  81    -0.754458340855E+02    0.18748E-04   -0.10476E-03  2397   0.756E-02    0.609E-02
RMM:  82    -0.754458561984E+02   -0.22113E-04   -0.14864E-03  3380   0.764E-02    0.540E-02
RMM:  83    -0.754458373663E+02    0.18832E-04   -0.10418E-03  2999   0.757E-02    0.544E-02
RMM:  84    -0.754458595917E+02   -0.22225E-04   -0.14561E-03  2494   0.750E-02    0.546E-02
RMM:  85    -0.754458410328E+02    0.18559E-04   -0.10368E-03  2373   0.742E-02    0.554E-02
RMM:  86    -0.754458615958E+02   -0.20563E-04   -0.14278E-03  2323   0.741E-02    0.567E-02
RMM:  87    -0.754458419015E+02    0.19694E-04   -0.10335E-03  2499   0.740E-02    0.530E-02
RMM:  88    -0.754458602979E+02   -0.18396E-04   -0.14026E-03  2387   0.737E-02    0.537E-02
RMM:  89    -0.754458420770E+02    0.18221E-04   -0.10284E-03  2392   0.732E-02    0.537E-02
RMM:  90    -0.754458584605E+02   -0.16383E-04   -0.13803E-03  2362   0.731E-02    0.542E-02
RMM:  91    -0.754458396048E+02    0.18856E-04   -0.10234E-03  2267   0.725E-02    0.544E-02
RMM:  92    -0.754458475651E+02   -0.79603E-05   -0.13667E-03  3947   0.753E-02    0.363E-02
RMM:  93    -0.754458279954E+02    0.19570E-04   -0.10211E-03  3548   0.741E-02    0.345E-02
RMM:  94    -0.754458415222E+02   -0.13527E-04   -0.13443E-03  2895   0.731E-02    0.347E-02
RMM:  95    -0.754458225121E+02    0.19010E-04   -0.10166E-03  2650   0.720E-02    0.337E-02
RMM:  96    -0.754458343368E+02   -0.11825E-04   -0.13257E-03  2630   0.720E-02    0.329E-02
RMM:  97    -0.754458145260E+02    0.19811E-04   -0.10147E-03  3630   0.722E-02    0.289E-02
RMM:  98    -0.754458254524E+02   -0.10926E-04   -0.13097E-03  2939   0.720E-02    0.292E-02
RMM:  99    -0.754458068972E+02    0.18555E-04   -0.10096E-03  2411   0.708E-02    0.293E-02
RMM: 100    -0.754458166806E+02   -0.97834E-05   -0.12952E-03  2380   0.710E-02
   4 F= -.78239154E+02 E0= -.78237817E+02  d E =-.194975E+00
       N       E                     dE             d eps       ncg     rms          rms(c)
DAV:   1    -0.746845593621E+02    0.76125E+00   -0.12609E+02  5472   0.383E+01    0.272E+00
RMM:   2    -0.753811592390E+02   -0.69660E+00   -0.65967E+00  7168   0.105E+01    0.289E+00
RMM:   3    -0.755558442223E+02   -0.17468E+00   -0.17737E+00  8004   0.529E+00    0.262E+00
RMM:   4    -0.754949007443E+02    0.60943E-01   -0.52502E-01  8099   0.263E+00    0.760E-01
RMM:   5    -0.755122033424E+02   -0.17303E-01   -0.16678E-01  8413   0.141E+00    0.680E-01
RMM:   6    -0.755122764962E+02   -0.73154E-04   -0.71510E-02  8405   0.801E-01    0.464E-01
RMM:   7    -0.755140903095E+02   -0.18138E-02   -0.28377E-02  8222   0.521E-01    0.168E-01
RMM:   8    -0.755157947448E+02   -0.17044E-02   -0.18663E-02  7920   0.366E-01    0.105E-01
RMM:   9    -0.755165526042E+02   -0.75786E-03   -0.89423E-03  7716   0.265E-01    0.611E-02
RMM:  10    -0.755173479288E+02   -0.79532E-03   -0.86608E-03  7454   0.214E-01    0.549E-02
RMM:  11    -0.755177512978E+02   -0.40337E-03   -0.44871E-03  7149   0.175E-01    0.589E-02
RMM:  12    -0.755181900658E+02   -0.43877E-03   -0.50559E-03  6699   0.153E-01    0.179E-02
RMM:  13    -0.755184144117E+02   -0.22435E-03   -0.26571E-03  6376   0.133E-01    0.126E-02
RMM:  14    -0.755187221006E+02   -0.30769E-03   -0.34827E-03  5916   0.120E-01    0.481E-03
RMM:  15    -0.755188623713E+02   -0.14027E-03   -0.17978E-03  5489   0.107E-01    0.665E-03
RMM:  16    -0.755190846372E+02   -0.22227E-03   -0.26166E-03  5272   0.100E-01    0.236E-03
RMM:  17    -0.755191757443E+02   -0.91107E-04   -0.13135E-03  4950   0.925E-02    0.297E-03
RMM:  18    -0.755193431354E+02   -0.16739E-03   -0.20808E-03  4742   0.882E-02    0.322E-03
RMM:  19    -0.755194035637E+02   -0.60428E-04   -0.10236E-03  4527   0.827E-02    0.946E-03
RMM:  20    -0.755195359563E+02   -0.13239E-03   -0.17250E-03  4370   0.795E-02    0.109E-02
RMM:  21    -0.755195789285E+02   -0.42972E-04   -0.82479E-04  4245   0.754E-02    0.108E-02
RMM:  22    -0.755196855775E+02   -0.10665E-03   -0.14698E-03  4058   0.734E-02    0.129E-02
RMM:  23    -0.755197149803E+02   -0.29403E-04   -0.68944E-04  3850   0.700E-02    0.144E-02
RMM:  24    -0.755198032995E+02   -0.88319E-04   -0.12815E-03  3763   0.686E-02    0.148E-02
RMM:  25    -0.755198232021E+02   -0.19903E-04   -0.59068E-04  3553   0.657E-02    0.161E-02
RMM:  26    -0.755198971551E+02   -0.73953E-04   -0.11350E-03  3368   0.643E-02    0.178E-02
RMM:  27    -0.755199101311E+02   -0.12976E-04   -0.51778E-04  3332   0.624E-02    0.183E-02
RMM:  28    -0.755199730167E+02   -0.62886E-04   -0.10209E-03  3155   0.614E-02    0.198E-02
RMM:  29    -0.755199806837E+02   -0.76671E-05   -0.46259E-04  3059   0.598E-02    0.208E-02
RMM:  30    -0.755200345686E+02   -0.53885E-04   -0.92843E-04  2985   0.590E-02    0.221E-02
RMM:  31    -0.755200381107E+02   -0.35422E-05   -0.41964E-04  2942   0.577E-02    0.229E-02
RMM:  32    -0.755200846144E+02   -0.46504E-04   -0.85271E-04  2908   0.569E-02    0.241E-02
RMM:  33    -0.755200850257E+02   -0.41135E-06   -0.38704E-04  2858   0.559E-02    0.248E-02
RMM:  34    -0.755201252932E+02   -0.40267E-04   -0.78990E-04  2823   0.554E-02    0.259E-02
RMM:  35    -0.755201231689E+02    0.21243E-05   -0.36083E-04  2796   0.542E-02    0.265E-02
RMM:  36    -0.755201582904E+02   -0.35122E-04   -0.73678E-04  2751   0.537E-02    0.274E-02
RMM:  37    -0.755201540788E+02    0.42117E-05   -0.33954E-04  2749   0.529E-02    0.280E-02
RMM:  38    -0.755201847461E+02   -0.30667E-04   -0.69204E-04  2722   0.526E-02    0.288E-02
RMM:  39    -0.755201789101E+02    0.58360E-05   -0.32371E-04  2739   0.520E-02    0.293E-02
RMM:  40    -0.755202057140E+02   -0.26804E-04   -0.65298E-04  2697   0.515E-02    0.300E-02
RMM:  41    -0.755201986058E+02    0.71082E-05   -0.31113E-04  2700   0.509E-02    0.304E-02
RMM:  42    -0.755202219642E+02   -0.23358E-04   -0.61881E-04  2639   0.506E-02    0.311E-02
RMM:  43    -0.755202138111E+02    0.81531E-05   -0.30141E-04  2714   0.502E-02    0.314E-02
RMM:  44    -0.755202341532E+02   -0.20342E-04   -0.58899E-04  2625   0.498E-02    0.319E-02
RMM:  45    -0.755202251192E+02    0.90341E-05   -0.29311E-04  2665   0.493E-02    0.323E-02
RMM:  46    -0.755202427747E+02   -0.17656E-04   -0.56274E-04  2595   0.490E-02    0.328E-02
RMM:  47    -0.755202329666E+02    0.98082E-05   -0.28656E-04  2650   0.487E-02    0.330E-02
RMM:  48    -0.755202483431E+02   -0.15377E-04   -0.54106E-04  2641   0.485E-02    0.334E-02
RMM:  49    -0.755202378682E+02    0.10475E-04   -0.28068E-04  2591   0.480E-02    0.337E-02
RMM:  50    -0.755202509765E+02   -0.13108E-04   -0.51951E-04  2607   0.479E-02    0.341E-02
RMM:  51    -0.755202400256E+02    0.10951E-04   -0.27700E-04  2574   0.474E-02    0.344E-02
RMM:  52    -0.755202511018E+02   -0.11076E-04   -0.50018E-04  2615   0.473E-02    0.344E-02
RMM:  53    -0.755202399227E+02    0.11179E-04   -0.27549E-04  2620   0.470E-02    0.349E-02
RMM:  54    -0.755202492879E+02   -0.93652E-05   -0.48328E-04  2562   0.467E-02    0.357E-02
RMM:  55    -0.755202376752E+02    0.11613E-04   -0.27347E-04  2567   0.464E-02    0.360E-02
RMM:  56    -0.755202452601E+02   -0.75849E-05   -0.46827E-04  2561   0.464E-02    0.364E-02
RMM:  57    -0.755202331369E+02    0.12123E-04   -0.27220E-04  2586   0.461E-02    0.356E-02
RMM:  58    -0.755202391861E+02   -0.60493E-05   -0.45437E-04  2602   0.460E-02    0.359E-02
RMM:  59    -0.755202270656E+02    0.12121E-04   -0.27147E-04  2510   0.455E-02    0.361E-02
RMM:  60    -0.755202316138E+02   -0.45481E-05   -0.44109E-04  2567   0.456E-02    0.364E-02
RMM:  61    -0.755202193630E+02    0.12251E-04   -0.27207E-04  2536   0.452E-02    0.365E-02
RMM:  62    -0.755202231388E+02   -0.37758E-05   -0.42986E-04  2616   0.452E-02    0.384E-02
RMM:  63    -0.755202110346E+02    0.12104E-04   -0.27287E-04  2620   0.449E-02    0.399E-02
RMM:  64    -0.755202128239E+02   -0.17892E-05   -0.41798E-04  2615   0.449E-02    0.397E-02
RMM:  65    -0.755202003685E+02    0.12455E-04   -0.27462E-04  2538   0.446E-02    0.397E-02
RMM:  66    -0.755202010504E+02   -0.68198E-06   -0.40795E-04  2548   0.446E-02    0.399E-02
RMM:  67    -0.755201885711E+02    0.12479E-04   -0.27576E-04  2581   0.442E-02    0.400E-02
RMM:  68    -0.755201880268E+02    0.54431E-06   -0.39764E-04  2521   0.442E-02    0.399E-02
RMM:  69    -0.755201755131E+02    0.12514E-04   -0.27765E-04  2507   0.440E-02    0.403E-02
RMM:  70    -0.755201738591E+02    0.16540E-05   -0.38883E-04  2504   0.439E-02    0.402E-02
RMM:  71    -0.755201613741E+02    0.12485E-04   -0.27980E-04  2479   0.437E-02    0.404E-02
RMM:  72    -0.755201584597E+02    0.29144E-05   -0.38070E-04  2601   0.439E-02    0.390E-02
RMM:  73    -0.755201456720E+02    0.12788E-04   -0.28177E-04  2595   0.435E-02    0.380E-02
RMM:  74    -0.755201419553E+02    0.37167E-05   -0.37270E-04  2573   0.435E-02    0.377E-02
RMM:  75    -0.755201293805E+02    0.12575E-04   -0.28384E-04  2508   0.432E-02    0.376E-02
RMM:  76    -0.755201246968E+02    0.46837E-05   -0.36577E-04  2554   0.433E-02    0.371E-02
RMM:  77    -0.755201098622E+02    0.14835E-04   -0.28759E-04  3494   0.439E-02    0.288E-02
RMM:  78    -0.755201041494E+02    0.57128E-05   -0.35879E-04  3152   0.435E-02    0.274E-02
RMM:  79    -0.755200916135E+02    0.12536E-04   -0.28959E-04  2831   0.430E-02    0.258E-02
RMM:  80    -0.755200855034E+02    0.61101E-05   -0.35250E-04  2663   0.429E-02    0.260E-02
RMM:  81    -0.755200732050E+02    0.12298E-04   -0.29179E-04  2479   0.425E-02    0.259E-02
RMM:  82    -0.755200657005E+02    0.75045E-05   -0.34626E-04  2618   0.427E-02    0.248E-02
RMM:  83    -0.755200534109E+02    0.12290E-04   -0.29479E-04  2622   0.424E-02    0.244E-02
RMM:  84    -0.755200455297E+02    0.78813E-05   -0.34029E-04  2562   0.423E-02    0.239E-02
RMM:  85    -0.755200335182E+02    0.12012E-04   -0.29858E-04  2518   0.423E-02    0.240E-02
RMM:  86    -0.755200249863E+02    0.85319E-05   -0.33505E-04  2452   0.420E-02    0.240E-02
RMM:  87    -0.755200126068E+02    0.12379E-04   -0.30080E-04  2708   0.420E-02    0.234E-02
RMM:  88    -0.755200034336E+02    0.91732E-05   -0.33085E-04  2700   0.421E-02    0.232E-02
RMM:  89    -0.755199916002E+02    0.11833E-04   -0.30419E-04  2493   0.419E-02    0.234E-02
RMM:  90    -0.755199819723E+02    0.96278E-05   -0.32638E-04  2435   0.416E-02    0.237E-02
RMM:  91    -0.755199703864E+02    0.11586E-04   -0.30721E-04  2471   0.417E-02    0.240E-02
RMM:  92    -0.755199597579E+02    0.10628E-04   -0.32315E-04  2590   0.417E-02    0.217E-02
RMM:  93    -0.755199481682E+02    0.11590E-04   -0.31039E-04  2552   0.416E-02    0.218E-02
RMM:  94    -0.755199372011E+02    0.10967E-04   -0.31893E-04  2463   0.414E-02    0.217E-02
RMM:  95    -0.755199256433E+02    0.11558E-04   -0.31406E-04  2451   0.415E-02    0.217E-02
RMM:  96    -0.755199143076E+02    0.11336E-04   -0.31680E-04  2462   0.414E-02    0.217E-02
RMM:  97    -0.755199023204E+02    0.11987E-04   -0.31689E-04  2719   0.414E-02    0.209E-02
RMM:  98    -0.755198908347E+02    0.11486E-04   -0.31406E-04  2630   0.414E-02    0.212E-02
RMM:  99    -0.755198797564E+02    0.11078E-04   -0.31920E-04  2517   0.410E-02    0.214E-02
RMM: 100    -0.755198676992E+02    0.12057E-04   -0.31164E-04  2412   0.410E-02
   5 F= -.78296340E+02 E0= -.78295496E+02  d E =-.252160E+00
       N       E                     dE             d eps       ncg     rms          rms(c)
DAV:   1    -0.752403166268E+02    0.27956E+00   -0.56903E+01  5568   0.262E+01    0.104E+00
RMM:   2    -0.754862536052E+02   -0.24594E+00   -0.26230E+00  7320   0.614E+00    0.592E-01
RMM:   3    -0.755913777617E+02   -0.10512E+00   -0.86443E-01  8180   0.340E+00    0.137E+00
RMM:   4    -0.755847158560E+02    0.66619E-02   -0.20951E-01  7952   0.158E+00    0.335E-01
RMM:   5    -0.755898261179E+02   -0.51103E-02   -0.66493E-02  7985   0.840E-01    0.252E-01
RMM:   6    -0.755921320750E+02   -0.23060E-02   -0.28890E-02  7853   0.498E-01    0.138E-01
RMM:   7    -0.755933551254E+02   -0.12231E-02   -0.12874E-02  7740   0.335E-01    0.862E-02
RMM:   8    -0.755940624903E+02   -0.70736E-03   -0.88497E-03  7712   0.249E-01    0.490E-02
RMM:   9    -0.755944889835E+02   -0.42649E-03   -0.51663E-03  7237   0.194E-01    0.256E-02
RMM:  10    -0.755949082869E+02   -0.41930E-03   -0.46240E-03  6635   0.162E-01    0.219E-02
RMM:  11    -0.755951587034E+02   -0.25042E-03   -0.28858E-03  6153   0.136E-01    0.174E-02
RMM:  12    -0.755953952325E+02   -0.23653E-03   -0.28305E-03  5883   0.122E-01    0.581E-03
RMM:  13    -0.755955413749E+02   -0.14614E-03   -0.18451E-03  5456   0.107E-01    0.508E-03
RMM:  14    -0.755957028258E+02   -0.16145E-03   -0.19932E-03  5032   0.981E-02    0.242E-03
RMM:  15    -0.755957975368E+02   -0.94711E-04   -0.13282E-03  4838   0.899E-02    0.324E-03
RMM:  16    -0.755959123632E+02   -0.11483E-03   -0.15286E-03  4586   0.846E-02    0.334E-03
RMM:  17    -0.755959774715E+02   -0.65108E-04   -0.10292E-03  4380   0.792E-02    0.608E-03
RMM:  18    -0.755960646899E+02   -0.87218E-04   -0.12405E-03  4228   0.757E-02    0.531E-03
RMM:  19    -0.755961121628E+02   -0.47473E-04   -0.84226E-04  3984   0.718E-02    0.684E-03
RMM:  20    -0.755961804545E+02   -0.68292E-04   -0.10491E-03  3821   0.692E-02    0.746E-03
RMM:  21    -0.755962160703E+02   -0.35616E-04   -0.71814E-04  3708   0.663E-02    0.874E-03
RMM:  22    -0.755962714973E+02   -0.55427E-04   -0.91354E-04  3589   0.642E-02    0.912E-03
RMM:  23    -0.755962988647E+02   -0.27367E-04   -0.62916E-04  3436   0.618E-02    0.101E-02
RMM:  24    -0.755963445047E+02   -0.45640E-04   -0.81299E-04  3333   0.605E-02    0.114E-02
RMM:  25    -0.755963657935E+02   -0.21289E-04   -0.56318E-04  3233   0.584E-02    0.119E-02
RMM:  26    -0.755964040914E+02   -0.38298E-04   -0.73416E-04  3152   0.575E-02    0.129E-02
RMM:  27    -0.755964205814E+02   -0.16490E-04   -0.51125E-04  3057   0.558E-02    0.135E-02
RMM:  28    -0.755964530458E+02   -0.32464E-04   -0.67167E-04  2999   0.550E-02    0.145E-02
RMM:  29    -0.755964657843E+02   -0.12738E-04   -0.47104E-04  2980   0.539E-02    0.151E-02
RMM:  30    -0.755964934188E+02   -0.27634E-04   -0.61981E-04  2872   0.529E-02    0.160E-02
RMM:  31    -0.755965030414E+02   -0.96227E-05   -0.43641E-04  2891   0.520E-02    0.166E-02
RMM:  32    -0.755965267474E+02   -0.23706E-04   -0.57804E-04  2805   0.513E-02    0.173E-02
RMM:  33    -0.755965337270E+02   -0.69796E-05   -0.40770E-04  2799   0.504E-02    0.178E-02
RMM:  34    -0.755965542071E+02   -0.20480E-04   -0.54421E-04  2810   0.502E-02    0.185E-02
RMM:  35    -0.755965590303E+02   -0.48232E-05   -0.38430E-04  2744   0.492E-02    0.189E-02
RMM:  36    -0.755965767015E+02   -0.17671E-04   -0.51421E-04  2744   0.489E-02    0.195E-02
RMM:  37    -0.755965796869E+02   -0.29854E-05   -0.36450E-04  2715   0.483E-02    0.198E-02
RMM:  38    -0.755965950189E+02   -0.15332E-04   -0.48956E-04  2725   0.479E-02    0.204E-02
RMM:  39    -0.755965964720E+02   -0.14531E-05   -0.34795E-04  2722   0.472E-02    0.207E-02
RMM:  40    -0.755966097487E+02   -0.13277E-04   -0.46792E-04  2651   0.470E-02    0.211E-02
RMM:  41    -0.755966097014E+02    0.47326E-07   -0.33265E-04  2676   0.465E-02    0.213E-02
RMM:  42    -0.755966211921E+02   -0.11491E-04   -0.44991E-04  2675   0.464E-02    0.216E-02
RMM:  43    -0.755966198999E+02    0.12922E-05   -0.31984E-04  2750   0.457E-02    0.212E-02
RMM:  44    -0.755966298315E+02   -0.99316E-05   -0.43411E-04  2813   0.456E-02    0.207E-02
RMM:  45    -0.755966274602E+02    0.23713E-05   -0.30896E-04  2858   0.453E-02    0.204E-02
RMM:  46    -0.755966362299E+02   -0.87697E-05   -0.42150E-04  2691   0.450E-02    0.206E-02
RMM:  47    -0.755966327976E+02    0.34323E-05   -0.29768E-04  2617   0.445E-02    0.208E-02
RMM:  48    -0.755966405146E+02   -0.77169E-05   -0.41083E-04  2641   0.443E-02    0.212E-02
RMM:  49    -0.755966362661E+02    0.42485E-05   -0.28967E-04  2610   0.439E-02    0.214E-02
RMM:  50    -0.755966429044E+02   -0.66384E-05   -0.40043E-04  2584   0.437E-02    0.217E-02
RMM:  51    -0.755966378249E+02    0.50796E-05   -0.28150E-04  2589   0.434E-02    0.219E-02
RMM:  52    -0.755966435340E+02   -0.57091E-05   -0.39169E-04  2565   0.432E-02    0.220E-02
RMM:  53    -0.755966377107E+02    0.58233E-05   -0.27460E-04  2587   0.430E-02    0.222E-02
RMM:  54    -0.755966427202E+02   -0.50095E-05   -0.38510E-04  2567   0.429E-02    0.225E-02
RMM:  55    -0.755966361540E+02    0.65662E-05   -0.26741E-04  2537   0.425E-02    0.227E-02
RMM:  56    -0.755966404860E+02   -0.43320E-05   -0.37910E-04  2562   0.425E-02    0.229E-02
RMM:  57    -0.755966333418E+02    0.71442E-05   -0.26206E-04  2542   0.421E-02    0.233E-02
RMM:  58    -0.755966370159E+02   -0.36741E-05   -0.37279E-04  2492   0.420E-02    0.236E-02
RMM:  59    -0.755966291897E+02    0.78262E-05   -0.25701E-04  2529   0.418E-02    0.237E-02
RMM:  60    -0.755966322841E+02   -0.30944E-05   -0.36796E-04  2501   0.416E-02    0.239E-02
RMM:  61    -0.755966239695E+02    0.83146E-05   -0.25284E-04  2549   0.414E-02    0.240E-02
RMM:  62    -0.755966261120E+02   -0.21425E-05   -0.36422E-04  2796   0.413E-02    0.222E-02
RMM:  63    -0.755966171340E+02    0.89780E-05   -0.24835E-04  2754   0.413E-02    0.221E-02
RMM:  64    -0.755966190208E+02   -0.18868E-05   -0.36075E-04  2693   0.411E-02    0.215E-02
RMM:  65    -0.755966094481E+02    0.95727E-05   -0.24417E-04  2724   0.409E-02    0.212E-02
RMM:  66    -0.755966111380E+02   -0.16898E-05   -0.35800E-04  2623   0.407E-02    0.211E-02
RMM:  67    -0.755966011334E+02    0.10005E-04   -0.24057E-04  2616   0.406E-02    0.214E-02
RMM:  68    -0.755966024585E+02   -0.13251E-05   -0.35549E-04  2547   0.405E-02    0.219E-02
RMM:  69    -0.755965919854E+02    0.10473E-04   -0.23702E-04  2511   0.403E-02    0.219E-02
RMM:  70    -0.755965929995E+02   -0.10142E-05   -0.35358E-04  2506   0.404E-02    0.221E-02
RMM:  71    -0.755965822244E+02    0.10775E-04   -0.23389E-04  2468   0.400E-02    0.222E-02
RMM:  72    -0.755965827767E+02   -0.55235E-06   -0.35191E-04  2741   0.401E-02    0.209E-02
RMM:  73    -0.755965715934E+02    0.11183E-04   -0.23053E-04  2629   0.399E-02    0.212E-02
RMM:  74    -0.755965721023E+02   -0.50890E-06   -0.35000E-04  2491   0.397E-02    0.216E-02
RMM:  75    -0.755965606247E+02    0.11478E-04   -0.22802E-04  2484   0.394E-02    0.220E-02
RMM:  76    -0.755965615880E+02   -0.96322E-06   -0.35637E-04  2440   0.393E-02    0.225E-02
RMM:  77    -0.755965494361E+02    0.12152E-04   -0.23040E-04  2663   0.394E-02    0.207E-02
RMM:  78    -0.755965501917E+02   -0.75560E-06   -0.35628E-04  2590   0.393E-02    0.207E-02
RMM:  79    -0.755965373115E+02    0.12880E-04   -0.21893E-04  2515   0.391E-02    0.210E-02
RMM:  80    -0.755965385128E+02   -0.12014E-05   -0.36083E-04  2453   0.389E-02    0.211E-02
RMM:  81    -0.755965247482E+02    0.13765E-04   -0.21117E-04  2524   0.389E-02    0.212E-02
RMM:  82    -0.755965253410E+02   -0.59277E-06   -0.36750E-04  3092   0.391E-02    0.181E-02
RMM:  83    -0.755965110781E+02    0.14263E-04   -0.20649E-04  2864   0.390E-02    0.182E-02
RMM:  84    -0.755965131270E+02   -0.20489E-05   -0.37136E-04  2538   0.387E-02    0.185E-02
RMM:  85    -0.755964984535E+02    0.14674E-04   -0.20324E-04  2431   0.384E-02    0.187E-02
RMM:  86    -0.755965005125E+02   -0.20590E-05   -0.37297E-04  2393   0.383E-02    0.189E-02
RMM:  87    -0.755964854213E+02    0.15091E-04   -0.20175E-04  2525   0.384E-02    0.187E-02
RMM:  88    -0.755964873957E+02   -0.19743E-05   -0.37421E-04  2433   0.381E-02    0.186E-02
RMM:  89    -0.755964719289E+02    0.15467E-04   -0.19926E-04  2462   0.382E-02    0.183E-02
RMM:  90    -0.755964739191E+02   -0.19902E-05   -0.37590E-04  2404   0.380E-02    0.185E-02
RMM:  91    -0.755964581506E+02    0.15769E-04   -0.19827E-04  2457   0.383E-02    0.184E-02
RMM:  92    -0.755964597661E+02   -0.16155E-05   -0.37588E-04  2688   0.381E-02    0.172E-02
RMM:  93    -0.755964439498E+02    0.15816E-04   -0.19668E-04  2759   0.381E-02    0.170E-02
RMM:  94    -0.755964456255E+02   -0.16757E-05   -0.37557E-04  2509   0.378E-02    0.171E-02
RMM:  95    -0.755964291625E+02    0.16463E-04   -0.19497E-04  2476   0.378E-02    0.171E-02
RMM:  96    -0.755964304501E+02   -0.12876E-05   -0.37525E-04  2464   0.377E-02    0.173E-02
RMM:  97    -0.755964130930E+02    0.17357E-04   -0.19444E-04  2979   0.378E-02    0.168E-02
RMM:  98    -0.755964143994E+02   -0.13065E-05   -0.37359E-04  2733   0.378E-02    0.174E-02
RMM:  99    -0.755963975403E+02    0.16859E-04   -0.19280E-04  2371   0.373E-02    0.175E-02
RMM: 100    -0.755963982164E+02   -0.67607E-06   -0.37178E-04  2395   0.375E-02
   6 F= -.78382998E+02 E0= -.78381551E+02  d E =-.866587E-01
       N       E                     dE             d eps       ncg     rms          rms(c)
DAV:   1    -0.698693746263E+02    0.57270E+01   -0.68479E+02  5584   0.109E+02    0.408E+00
RMM:   2    -0.743626764381E+02   -0.44933E+01   -0.44929E+01  7249   0.246E+01    0.424E+00
RMM:   3    -0.755190611923E+02   -0.11564E+01   -0.12947E+01  8174   0.125E+01    0.332E+00
RMM:   4    -0.755992848304E+02   -0.80224E-01   -0.25956E+00  8088   0.514E+00    0.148E+00
RMM:   5    -0.756391901671E+02   -0.39905E-01   -0.63058E-01  8492   0.261E+00    0.120E+00
RMM:   6    -0.756560468179E+02   -0.16857E-01   -0.28680E-01  8273   0.153E+00    0.970E-01
RMM:   7    -0.756586346584E+02   -0.25878E-02   -0.12577E-01  7977   0.117E+00    0.307E-01
RMM:   8    -0.756663669086E+02   -0.77323E-02   -0.90087E-02  8354   0.791E-01    0.257E-01
RMM:   9    -0.756691989881E+02   -0.28321E-02   -0.40977E-02  7852   0.580E-01    0.177E-01
RMM:  10    -0.756730505954E+02   -0.38516E-02   -0.43951E-02  7815   0.462E-01    0.117E-01
RMM:  11    -0.756749274970E+02   -0.18769E-02   -0.21373E-02  7620   0.367E-01    0.823E-02
RMM:  12    -0.756772919148E+02   -0.23644E-02   -0.26575E-02  7210   0.318E-01    0.266E-02
RMM:  13    -0.756783680081E+02   -0.10761E-02   -0.12838E-02  6875   0.279E-01    0.226E-02
RMM:  14    -0.756800426222E+02   -0.16746E-02   -0.18782E-02  6666   0.251E-01    0.119E-02
RMM:  15    -0.756807513036E+02   -0.70868E-03   -0.90080E-03  6415   0.226E-01    0.120E-02
RMM:  16    -0.756819839492E+02   -0.12326E-02   -0.14320E-02  6188   0.211E-01    0.695E-03
RMM:  17    -0.756824704793E+02   -0.48653E-03   -0.67509E-03  5940   0.194E-01    0.980E-03
RMM:  18    -0.756834349690E+02   -0.96449E-03   -0.11547E-02  5702   0.185E-01    0.299E-02
RMM:  19    -0.756837874519E+02   -0.35248E-03   -0.53688E-03  5377   0.173E-01    0.293E-02
RMM:  20    -0.756845608833E+02   -0.77343E-03   -0.95890E-03  5200   0.166E-01    0.300E-02
RMM:  21    -0.756848248257E+02   -0.26394E-03   -0.44181E-03  4991   0.158E-01    0.277E-02
RMM:  22    -0.756854644770E+02   -0.63965E-03   -0.81759E-03  4733   0.153E-01    0.315E-02
RMM:  23    -0.756856674223E+02   -0.20295E-03   -0.37537E-03  4630   0.147E-01    0.294E-02
RMM:  24    -0.756862068773E+02   -0.53945E-03   -0.71099E-03  4322   0.143E-01    0.371E-02
RMM:  25    -0.756863645906E+02   -0.15771E-03   -0.32630E-03  4242   0.137E-01    0.334E-02
RMM:  26    -0.756868236498E+02   -0.45906E-03   -0.62668E-03  4024   0.134E-01    0.362E-02
RMM:  27    -0.756869498324E+02   -0.12618E-03   -0.28893E-03  3832   0.129E-01    0.377E-02
RMM:  28    -0.756873442080E+02   -0.39438E-03   -0.55828E-03  4040   0.127E-01    0.372E-02
RMM:  29    -0.756874456737E+02   -0.10147E-03   -0.26001E-03  3903   0.123E-01    0.402E-02
RMM:  30    -0.756877898877E+02   -0.34421E-03   -0.50287E-03  3569   0.121E-01    0.440E-02
RMM:  31    -0.756878724768E+02   -0.82589E-04   -0.23734E-03  3483   0.118E-01    0.476E-02
RMM:  32    -0.756881725374E+02   -0.30006E-03   -0.45632E-03  3311   0.116E-01    0.483E-02
RMM:  33    -0.756882399720E+02   -0.67435E-04   -0.21884E-03  3266   0.113E-01    0.519E-02
RMM:  34    -0.756885042718E+02   -0.26430E-03   -0.41736E-03  3213   0.111E-01    0.530E-02
RMM:  35    -0.756885581387E+02   -0.53867E-04   -0.20361E-03  3119   0.109E-01    0.541E-02
RMM:  36    -0.756887929425E+02   -0.23480E-03   -0.38435E-03  3053   0.108E-01    0.565E-02
RMM:  37    -0.756888364383E+02   -0.43496E-04   -0.19098E-03  2997   0.105E-01    0.570E-02
RMM:  38    -0.756890451119E+02   -0.20867E-03   -0.35596E-03  2982   0.104E-01    0.588E-02
RMM:  39    -0.756890806395E+02   -0.35528E-04   -0.18049E-03  2916   0.102E-01    0.598E-02
RMM:  40    -0.756892668349E+02   -0.18620E-03   -0.33130E-03  2901   0.101E-01    0.614E-02
RMM:  41    -0.756892954058E+02   -0.28571E-04   -0.17160E-03  2839   0.995E-02    0.622E-02
RMM:  42    -0.756894619043E+02   -0.16650E-03   -0.30971E-03  2834   0.989E-02    0.635E-02
RMM:  43    -0.756894849695E+02   -0.23065E-04   -0.16413E-03  2832   0.971E-02    0.645E-02
RMM:  44    -0.756896344468E+02   -0.14948E-03   -0.29075E-03  2740   0.963E-02    0.659E-02
RMM:  45    -0.756896524959E+02   -0.18049E-04   -0.15768E-03  2792   0.951E-02    0.667E-02
RMM:  46    -0.756897869235E+02   -0.13443E-03   -0.27412E-03  2766   0.943E-02    0.680E-02
RMM:  47    -0.756898007328E+02   -0.13809E-04   -0.15207E-03  2764   0.928E-02    0.684E-02
RMM:  48    -0.756899216672E+02   -0.12093E-03   -0.25926E-03  2693   0.922E-02    0.695E-02
RMM:  49    -0.756899318278E+02   -0.10161E-04   -0.14725E-03  2735   0.911E-02    0.699E-02
RMM:  50    -0.756900407875E+02   -0.10896E-03   -0.24594E-03  2677   0.903E-02    0.709E-02
RMM:  51    -0.756900479379E+02   -0.71504E-05   -0.14296E-03  2699   0.892E-02    0.714E-02
RMM:  52    -0.756901468423E+02   -0.98904E-04   -0.23412E-03  2692   0.888E-02    0.734E-02
RMM:  53    -0.756901510072E+02   -0.41649E-05   -0.13925E-03  2673   0.877E-02    0.734E-02
RMM:  54    -0.756902394280E+02   -0.88421E-04   -0.22349E-03  2648   0.873E-02    0.741E-02
RMM:  55    -0.756902413548E+02   -0.19267E-05   -0.13592E-03  2658   0.863E-02    0.743E-02
RMM:  56    -0.756903208953E+02   -0.79541E-04   -0.21369E-03  2655   0.858E-02    0.748E-02
RMM:  57    -0.756903239130E+02   -0.30177E-05   -0.13323E-03  2915   0.853E-02    0.792E-02
RMM:  58    -0.756903955611E+02   -0.71648E-04   -0.20485E-03  2744   0.847E-02    0.799E-02
RMM:  59    -0.756903937934E+02    0.17678E-05   -0.13049E-03  2651   0.836E-02    0.803E-02
RMM:  60    -0.756904583051E+02   -0.64512E-04   -0.19683E-03  2611   0.830E-02    0.810E-02
RMM:  61    -0.756904548742E+02    0.34309E-05   -0.12807E-03  2610   0.822E-02    0.814E-02
RMM:  62    -0.756905175847E+02   -0.62710E-04   -0.18980E-03  3343   0.828E-02    0.881E-02
RMM:  63    -0.756905129367E+02    0.46479E-05   -0.12598E-03  2953   0.815E-02    0.890E-02
RMM:  64    -0.756905651082E+02   -0.52172E-04   -0.18293E-03  2728   0.810E-02    0.901E-02
RMM:  65    -0.756905588485E+02    0.62597E-05   -0.12401E-03  2640   0.802E-02    0.908E-02
RMM:  66    -0.756906050352E+02   -0.46187E-04   -0.17679E-03  2562   0.798E-02    0.913E-02
RMM:  67    -0.756905919506E+02    0.13085E-04   -0.12215E-03  3813   0.803E-02    0.864E-02
RMM:  68    -0.756906317842E+02   -0.39834E-04   -0.17125E-03  3008   0.790E-02    0.853E-02
RMM:  69    -0.756906224465E+02    0.93377E-05   -0.12025E-03  2773   0.781E-02    0.853E-02
RMM:  70    -0.756906559476E+02   -0.33501E-04   -0.16616E-03  3127   0.782E-02    0.814E-02
RMM:  71    -0.756906449447E+02    0.11003E-04   -0.11856E-03  2824   0.772E-02    0.803E-02
RMM:  72    -0.756906686874E+02   -0.23743E-04   -0.16207E-03  3884   0.791E-02    0.643E-02
RMM:  73    -0.756906572705E+02    0.11417E-04   -0.11680E-03  3369   0.777E-02    0.645E-02
RMM:  74    -0.756906854247E+02   -0.28154E-04   -0.15718E-03  2930   0.764E-02    0.639E-02
RMM:  75    -0.756906725364E+02    0.12888E-04   -0.11520E-03  2597   0.750E-02    0.642E-02
RMM:  76    -0.756906960916E+02   -0.23555E-04   -0.15293E-03  2631   0.750E-02    0.639E-02
RMM:  77    -0.756906753868E+02    0.20705E-04   -0.11398E-03  3867   0.759E-02    0.542E-02
RMM:  78    -0.756906939918E+02   -0.18605E-04   -0.14957E-03  3656   0.753E-02    0.508E-02
RMM:  79    -0.756906773638E+02    0.16628E-04   -0.11232E-03  3219   0.743E-02    0.487E-02
RMM:  80    -0.756906933347E+02   -0.15971E-04   -0.14595E-03  3303   0.739E-02    0.450E-02
RMM:  81    -0.756906752444E+02    0.18090E-04   -0.11091E-03  3353   0.733E-02    0.418E-02
RMM:  82    -0.756906871473E+02   -0.11903E-04   -0.14326E-03  3931   0.742E-02    0.337E-02
RMM:  83    -0.756906690872E+02    0.18060E-04   -0.10956E-03  3516   0.731E-02    0.333E-02
RMM:  84    -0.756906807150E+02   -0.11628E-04   -0.13959E-03  2652   0.716E-02    0.330E-02
RMM:  85    -0.756906614222E+02    0.19293E-04   -0.10814E-03  2529   0.709E-02    0.334E-02
RMM:  86    -0.756906701592E+02   -0.87371E-05   -0.13646E-03  2430   0.703E-02    0.339E-02
RMM:  87    -0.756906497529E+02    0.20406E-04   -0.10682E-03  2573   0.700E-02    0.369E-02
RMM:  88    -0.756906554272E+02   -0.56744E-05   -0.13384E-03  2459   0.697E-02    0.361E-02
RMM:  89    -0.756906327887E+02    0.22639E-04   -0.10573E-03  2739   0.698E-02    0.340E-02
RMM:  90    -0.756906370212E+02   -0.42325E-05   -0.13121E-03  2581   0.693E-02    0.366E-02
RMM:  91    -0.756906140609E+02    0.22960E-04   -0.10462E-03  2414   0.686E-02    0.367E-02
RMM:  92    -0.756906141099E+02   -0.48982E-07   -0.12913E-03  3207   0.692E-02    0.329E-02
RMM:  93    -0.756905901354E+02    0.23974E-04   -0.10347E-03  2775   0.687E-02    0.332E-02
RMM:  94    -0.756905891597E+02    0.97576E-06   -0.12676E-03  2463   0.681E-02    0.334E-02
RMM:  95    -0.756905651791E+02    0.23981E-04   -0.10349E-03  2473   0.674E-02    0.335E-02
RMM:  96    -0.756905623457E+02    0.28334E-05   -0.12479E-03  2558   0.674E-02    0.332E-02
RMM:  97    -0.756905362624E+02    0.26083E-04   -0.10217E-03  3060   0.678E-02    0.295E-02
RMM:  98    -0.756905311161E+02    0.51462E-05   -0.12236E-03  2876   0.673E-02    0.298E-02
RMM:  99    -0.756905048729E+02    0.26243E-04   -0.10100E-03  2354   0.663E-02    0.301E-02
RMM: 100    -0.756904975901E+02    0.72828E-05   -0.12020E-03  2331   0.661E-02
   7 F= -.78513861E+02 E0= -.78510371E+02  d E =-.217521E+00
       N       E                     dE             d eps       ncg     rms          rms(c)
DAV:   1    -0.754648902365E+02    0.22561E+00   -0.55505E+01  5408   0.251E+01    0.128E+00
RMM:   2    -0.756687740863E+02   -0.20388E+00   -0.20514E+00  7170   0.617E+00    0.107E+00
RMM:   3    -0.757458901748E+02   -0.77116E-01   -0.65188E-01  7864   0.325E+00    0.148E+00
RMM:   4    -0.757278342196E+02    0.18056E-01   -0.14914E-01  7990   0.150E+00    0.350E-01
RMM:   5    -0.757320508441E+02   -0.42166E-02   -0.48049E-02  7926   0.782E-01    0.255E-01
RMM:   6    -0.757334055189E+02   -0.13547E-02   -0.18498E-02  8006   0.456E-01    0.198E-01
RMM:   7    -0.757338016040E+02   -0.39609E-03   -0.93151E-03  7883   0.313E-01    0.799E-02
RMM:   8    -0.757342297321E+02   -0.42813E-03   -0.57201E-03  7881   0.224E-01    0.403E-02
RMM:   9    -0.757345691427E+02   -0.33941E-03   -0.38679E-03  7412   0.168E-01    0.225E-02
RMM:  10    -0.757348305877E+02   -0.26144E-03   -0.28743E-03  6914   0.136E-01    0.194E-02
RMM:  11    -0.757350239371E+02   -0.19335E-03   -0.21846E-03  6323   0.115E-01    0.133E-02
RMM:  12    -0.757351722530E+02   -0.14832E-03   -0.17471E-03  6012   0.101E-01    0.693E-03
RMM:  13    -0.757352944980E+02   -0.12225E-03   -0.14512E-03  5581   0.902E-02    0.413E-03
RMM:  14    -0.757353936286E+02   -0.99131E-04   -0.12251E-03  5040   0.814E-02    0.313E-03
RMM:  15    -0.757354781523E+02   -0.84524E-04   -0.10710E-03  4847   0.754E-02    0.167E-03
RMM:  16    -0.757355490045E+02   -0.70852E-04   -0.93377E-04  4582   0.705E-02    0.599E-04
RMM:  17    -0.757356095517E+02   -0.60547E-04   -0.84803E-04  4413   0.669E-02    0.155E-03
RMM:  18    -0.757356598218E+02   -0.50270E-04   -0.75192E-04  4129   0.633E-02    0.542E-03
RMM:  19    -0.757357068748E+02   -0.47053E-04   -0.70603E-04  4017   0.608E-02    0.689E-03
RMM:  20    -0.757357459568E+02   -0.39082E-04   -0.62958E-04  3790   0.583E-02    0.827E-03
RMM:  21    -0.757357830387E+02   -0.37082E-04   -0.60844E-04  3678   0.564E-02    0.929E-03
RMM:  22    -0.757358136707E+02   -0.30632E-04   -0.54345E-04  3415   0.542E-02    0.107E-02
RMM:  23    -0.757358438556E+02   -0.30185E-04   -0.53776E-04  3296   0.526E-02    0.117E-02
RMM:  24    -0.757358685556E+02   -0.24700E-04   -0.48115E-04  3167   0.513E-02    0.129E-02
RMM:  25    -0.757358937787E+02   -0.25223E-04   -0.48545E-04  3107   0.500E-02    0.139E-02
RMM:  26    -0.757359139127E+02   -0.20134E-04   -0.43267E-04  2949   0.486E-02    0.149E-02
RMM:  27    -0.757359352687E+02   -0.21356E-04   -0.44526E-04  2989   0.480E-02    0.159E-02
RMM:  28    -0.757359518868E+02   -0.16618E-04   -0.39533E-04  2843   0.468E-02    0.168E-02
RMM:  29    -0.757359702028E+02   -0.18316E-04   -0.41297E-04  2852   0.463E-02    0.176E-02
RMM:  30    -0.757359840384E+02   -0.13836E-04   -0.36660E-04  2787   0.455E-02    0.184E-02
RMM:  31    -0.757360000202E+02   -0.15982E-04   -0.38758E-04  2791   0.449E-02    0.191E-02
RMM:  32    -0.757360115783E+02   -0.11558E-04   -0.34223E-04  2735   0.442E-02    0.198E-02
RMM:  33    -0.757360255357E+02   -0.13957E-04   -0.36628E-04  2770   0.439E-02    0.205E-02
RMM:  34    -0.757360353278E+02   -0.97921E-05   -0.32300E-04  2691   0.431E-02    0.211E-02
RMM:  35    -0.757360476383E+02   -0.12310E-04   -0.34844E-04  2691   0.427E-02    0.216E-02
RMM:  36    -0.757360558946E+02   -0.82563E-05   -0.30710E-04  2672   0.423E-02    0.221E-02
RMM:  37    -0.757360667884E+02   -0.10894E-04   -0.33329E-04  2700   0.419E-02    0.225E-02
RMM:  38    -0.757360737772E+02   -0.69888E-05   -0.29301E-04  2627   0.413E-02    0.229E-02
RMM:  39    -0.757360833931E+02   -0.96159E-05   -0.31957E-04  2650   0.411E-02    0.232E-02
RMM:  40    -0.757360892728E+02   -0.58797E-05   -0.28144E-04  2595   0.407E-02    0.236E-02
RMM:  41    -0.757360978941E+02   -0.86213E-05   -0.30909E-04  2634   0.405E-02    0.240E-02
RMM:  42    -0.757361028078E+02   -0.49138E-05   -0.27087E-04  2583   0.400E-02    0.244E-02
RMM:  43    -0.757361104792E+02   -0.76713E-05   -0.29887E-04  2639   0.399E-02    0.247E-02
RMM:  44    -0.757361146266E+02   -0.41475E-05   -0.26282E-04  2568   0.395E-02    0.251E-02
RMM:  45    -0.757361213645E+02   -0.67378E-05   -0.28901E-04  2564   0.393E-02    0.254E-02
RMM:  46    -0.757361248784E+02   -0.35139E-05   -0.25646E-04  2601   0.393E-02    0.257E-02
RMM:  47    -0.757361309187E+02   -0.60403E-05   -0.28140E-04  2565   0.388E-02    0.261E-02
RMM:  48    -0.757361337872E+02   -0.28685E-05   -0.24962E-04  2589   0.387E-02    0.264E-02
RMM:  49    -0.757361392051E+02   -0.54180E-05   -0.27484E-04  2573   0.384E-02    0.266E-02
RMM:  50    -0.757361414611E+02   -0.22559E-05   -0.24323E-04  2521   0.382E-02    0.269E-02
RMM:  51    -0.757361462144E+02   -0.47533E-05   -0.26842E-04  2568   0.382E-02    0.271E-02
RMM:  52    -0.757361479673E+02   -0.17529E-05   -0.23882E-04  2572   0.380E-02    0.271E-02
RMM:  53    -0.757361522020E+02   -0.42348E-05   -0.26266E-04  2575   0.377E-02    0.275E-02
RMM:  54    -0.757361536465E+02   -0.14445E-05   -0.23483E-04  2547   0.376E-02    0.276E-02
RMM:  55    -0.757361573546E+02   -0.37081E-05   -0.25797E-04  2576   0.375E-02    0.278E-02
RMM:  56    -0.757361583456E+02   -0.99092E-06   -0.23028E-04  2491   0.372E-02    0.280E-02
RMM:  57    -0.757361615038E+02   -0.31583E-05   -0.25282E-04  2524   0.370E-02    0.280E-02
RMM:  58    -0.757361620840E+02   -0.58015E-06   -0.22627E-04  2488   0.369E-02    0.282E-02
RMM:  59    -0.757361648825E+02   -0.27985E-05   -0.24914E-04  2548   0.370E-02    0.284E-02
RMM:  60    -0.757361651775E+02   -0.29503E-06   -0.22324E-04  2471   0.366E-02    0.285E-02
RMM:  61    -0.757361675958E+02   -0.24183E-05   -0.24519E-04  2547   0.366E-02    0.287E-02
RMM:  62    -0.757361675316E+02    0.64170E-07   -0.22045E-04  2504   0.363E-02    0.290E-02
RMM:  63    -0.757361696144E+02   -0.20827E-05   -0.24085E-04  2536   0.364E-02    0.293E-02
RMM:  64    -0.757361694803E+02    0.13410E-06   -0.21903E-04  2522   0.362E-02    0.297E-02
RMM:  65    -0.757361710530E+02   -0.15728E-05   -0.23735E-04  2498   0.361E-02    0.297E-02
RMM:  66    -0.757361705802E+02    0.47285E-06   -0.21636E-04  2469   0.359E-02    0.296E-02
RMM:  67    -0.757361714946E+02   -0.91440E-06   -0.23368E-04  2655   0.359E-02    0.275E-02
RMM:  68    -0.757361706275E+02    0.86714E-06   -0.21423E-04  2597   0.357E-02    0.269E-02
RMM:  69    -0.757361715284E+02   -0.90091E-06   -0.23163E-04  2550   0.357E-02    0.266E-02
RMM:  70    -0.757361705142E+02    0.10142E-05   -0.21185E-04  2457   0.353E-02    0.265E-02
RMM:  71    -0.757361710489E+02   -0.53469E-06   -0.22839E-04  2537   0.356E-02    0.261E-02
RMM:  72    -0.757361693872E+02    0.16616E-05   -0.21058E-04  2862   0.355E-02    0.235E-02
RMM:  73    -0.757361699396E+02   -0.55240E-06   -0.22579E-04  2720   0.355E-02    0.239E-02
RMM:  74    -0.757361688971E+02    0.10425E-05   -0.20942E-04  2523   0.352E-02    0.243E-02
RMM:  75    -0.757361690516E+02   -0.15445E-06   -0.22374E-04  2485   0.351E-02    0.246E-02
RMM:  76    -0.757361675726E+02    0.14790E-05   -0.20722E-04  2452   0.348E-02    0.249E-02
RMM:  77    -0.757361668863E+02    0.68632E-06   -0.22176E-04  2481   0.349E-02    0.238E-02
RMM:  78    -0.757361652548E+02    0.16315E-05   -0.20648E-04  2426   0.348E-02    0.243E-02
RMM:  79    -0.757361650801E+02    0.17470E-06   -0.21952E-04  2478   0.348E-02    0.249E-02
RMM:  80    -0.757361635633E+02    0.15168E-05   -0.20562E-04  2480   0.346E-02    0.257E-02
RMM:  81    -0.757361631898E+02    0.37347E-06   -0.21761E-04  2570   0.347E-02    0.265E-02
RMM:  82    -0.757361608712E+02    0.23186E-05   -0.20536E-04  2525   0.346E-02    0.255E-02
RMM:  83    -0.757361602622E+02    0.60893E-06   -0.21697E-04  2594   0.348E-02    0.266E-02
RMM:  84    -0.757361584626E+02    0.17996E-05   -0.20404E-04  2674   0.344E-02    0.275E-02
RMM:  85    -0.757361573003E+02    0.11624E-05   -0.21444E-04  2499   0.344E-02    0.276E-02
RMM:  86    -0.757361549397E+02    0.23605E-05   -0.20296E-04  2393   0.341E-02    0.276E-02
RMM:  87    -0.757361492057E+02    0.57340E-05   -0.21454E-04  3192   0.348E-02    0.201E-02
RMM:  88    -0.757361470054E+02    0.22003E-05   -0.20316E-04  2796   0.343E-02    0.191E-02
RMM:  89    -0.757361458910E+02    0.11144E-05   -0.21219E-04  2766   0.343E-02    0.189E-02
RMM:  90    -0.757361437098E+02    0.21812E-05   -0.20187E-04  2423   0.336E-02    0.189E-02
RMM:  91    -0.757361421404E+02    0.15694E-05   -0.21018E-04  2445   0.338E-02    0.189E-02
RMM:  92    -0.757361376142E+02    0.45262E-05   -0.20238E-04  2709   0.339E-02    0.165E-02
RMM:  93    -0.757361367663E+02    0.84791E-06   -0.20841E-04  2595   0.337E-02    0.166E-02
RMM:  94    -0.757361345450E+02    0.22213E-05   -0.20224E-04  2431   0.336E-02    0.163E-02
RMM:  95    -0.757361323977E+02    0.21473E-05   -0.20743E-04  2397   0.335E-02    0.163E-02
RMM:  96    -0.757361295245E+02    0.28732E-05   -0.20104E-04  2375   0.333E-02    0.165E-02
RMM:  97    -0.757361270723E+02    0.24522E-05   -0.20705E-04  2438   0.334E-02    0.166E-02
RMM:  98    -0.757361237876E+02    0.32847E-05   -0.20117E-04  2471   0.334E-02    0.170E-02
RMM:  99    -0.757361213801E+02    0.24075E-05   -0.20689E-04  2430   0.334E-02    0.172E-02
RMM: 100    -0.757361181211E+02    0.32591E-05   -0.20028E-04  2347   0.332E-02
   8 F= -.78563700E+02 E0= -.78561060E+02  d E =-.498386E-01
       N       E                     dE             d eps       ncg     rms          rms(c)
DAV:   1    -0.757324979781E+02    0.36234E-02   -0.16035E+00  5936   0.415E+00    0.195E-01
RMM:   2    -0.757377657463E+02   -0.52678E-02   -0.49996E-02  6702   0.945E-01    0.223E-01
RMM:   3    -0.757390575227E+02   -0.12918E-02   -0.16994E-02  7521   0.508E-01    0.168E-01
RMM:   4    -0.757390079844E+02    0.49538E-04   -0.37609E-03  7564   0.234E-01    0.570E-02
RMM:   5    -0.757391427101E+02   -0.13473E-03   -0.13051E-03  7531   0.127E-01    0.427E-02
RMM:   6    -0.757391577497E+02   -0.15040E-04   -0.57907E-04  6969   0.789E-02    0.247E-02
RMM:   7    -0.757391819096E+02   -0.24160E-04   -0.30944E-04  5938   0.563E-02    0.655E-03
RMM:   8    -0.757391985271E+02   -0.16618E-04   -0.18908E-04  4916   0.413E-02    0.330E-03
RMM:   9    -0.757392109666E+02   -0.12440E-04   -0.14222E-04  4262   0.334E-02    0.325E-03
RMM:  10    -0.757392186032E+02   -0.76366E-05   -0.95569E-05  4044   0.285E-02
   9 F= -.78567577E+02 E0= -.78565132E+02  d E =-.537155E-01
       N       E                     dE             d eps       ncg     rms          rms(c)
DAV:   1    -0.757111072153E+02    0.28104E-01   -0.63714E+00  5832   0.834E+00    0.401E-01
RMM:   2    -0.757321107663E+02   -0.21004E-01   -0.20208E-01  6787   0.193E+00    0.438E-01
RMM:   3    -0.757381211051E+02   -0.60103E-02   -0.71252E-02  7528   0.105E+00    0.376E-01
RMM:   4    -0.757375769881E+02    0.54412E-03   -0.15883E-02  7657   0.483E-01    0.117E-01
RMM:   5    -0.757381560930E+02   -0.57910E-03   -0.51097E-03  7790   0.254E-01    0.106E-01
RMM:   6    -0.757381256293E+02    0.30464E-04   -0.22280E-03  7690   0.155E-01    0.567E-02
RMM:   7    -0.757382061212E+02   -0.80492E-04   -0.10116E-03  7242   0.106E-01    0.202E-02
RMM:   8    -0.757382685000E+02   -0.62379E-04   -0.71331E-04  6417   0.778E-02    0.116E-02
RMM:   9    -0.757383028883E+02   -0.34388E-04   -0.40266E-04  5685   0.600E-02    0.699E-03
RMM:  10    -0.757383367301E+02   -0.33842E-04   -0.37115E-04  4966   0.486E-02    0.686E-03
RMM:  11    -0.757383551401E+02   -0.18410E-04   -0.21427E-04  4458   0.417E-02    0.572E-03
RMM:  12    -0.757383755490E+02   -0.20409E-04   -0.23284E-04  4221   0.369E-02    0.185E-03
RMM:  13    -0.757383867953E+02   -0.11246E-04   -0.13727E-04  4133   0.333E-02    0.182E-03
RMM:  14    -0.757384014017E+02   -0.14606E-04   -0.17011E-04  3924   0.308E-02    0.840E-04
RMM:  15    -0.757384084483E+02   -0.70466E-05   -0.97628E-05  3776   0.283E-02
  10 F= -.78568371E+02 E0= -.78566087E+02  d E =-.545101E-01
       N       E                     dE             d eps       ncg     rms          rms(c)
DAV:   1    -0.755163590695E+02    0.22204E+00   -0.50671E+01  5624   0.239E+01    0.101E+00
RMM:   2    -0.756813723497E+02   -0.16501E+00   -0.17400E+00  6986   0.572E+00    0.464E-01
RMM:   3    -0.757517689491E+02   -0.70397E-01   -0.60883E-01  7611   0.306E+00    0.935E-01
RMM:   4    -0.757520578233E+02   -0.28887E-03   -0.13963E-01  7838   0.141E+00    0.290E-01
RMM:   5    -0.757551067054E+02   -0.30489E-02   -0.40864E-02  7981   0.735E-01    0.255E-01
RMM:   6    -0.757563076451E+02   -0.12009E-02   -0.17417E-02  7939   0.431E-01    0.219E-01
RMM:   7    -0.757568206398E+02   -0.51299E-03   -0.76222E-03  7793   0.286E-01    0.155E-01
RMM:   8    -0.757572638952E+02   -0.44326E-03   -0.57666E-03  7380   0.235E-01    0.834E-02
RMM:   9    -0.757574550845E+02   -0.19119E-03   -0.29488E-03  7517   0.170E-01    0.503E-02
RMM:  10    -0.757576530748E+02   -0.19799E-03   -0.27067E-03  6809   0.137E-01    0.162E-02
RMM:  11    -0.757577924617E+02   -0.13939E-03   -0.16068E-03  6517   0.112E-01    0.219E-02
RMM:  12    -0.757579361798E+02   -0.14372E-03   -0.16475E-03  6030   0.966E-02    0.138E-02
RMM:  13    -0.757580174415E+02   -0.81262E-04   -0.10011E-03  5512   0.843E-02    0.112E-02
RMM:  14    -0.757581149865E+02   -0.97545E-04   -0.11695E-03  5425   0.787E-02    0.699E-03
RMM:  15    -0.757581666687E+02   -0.51682E-04   -0.70620E-04  4879   0.715E-02    0.223E-03
RMM:  16    -0.757582373343E+02   -0.70666E-04   -0.89106E-04  4555   0.660E-02    0.497E-03
RMM:  17    -0.757582732907E+02   -0.35956E-04   -0.53878E-04  4476   0.621E-02    0.621E-03
RMM:  18    -0.757583273017E+02   -0.54011E-04   -0.71791E-04  4168   0.587E-02    0.839E-03
RMM:  19    -0.757583533301E+02   -0.26028E-04   -0.43390E-04  4050   0.559E-02    0.996E-03
RMM:  20    -0.757583960331E+02   -0.42703E-04   -0.60203E-04  3833   0.538E-02    0.112E-02
RMM:  21    -0.757584156942E+02   -0.19661E-04   -0.36231E-04  3834   0.514E-02    0.136E-02
RMM:  22    -0.757584510069E+02   -0.35313E-04   -0.52036E-04  3656   0.499E-02    0.161E-02
RMM:  23    -0.757584658888E+02   -0.14882E-04   -0.31244E-04  3556   0.480E-02    0.186E-02
RMM:  24    -0.757584950697E+02   -0.29181E-04   -0.45815E-04  3389   0.470E-02    0.203E-02
RMM:  25    -0.757585060079E+02   -0.10938E-04   -0.27476E-04  3222   0.455E-02    0.208E-02
RMM:  26    -0.757585305316E+02   -0.24524E-04   -0.41058E-04  3154   0.446E-02    0.218E-02
RMM:  27    -0.757585389772E+02   -0.84456E-05   -0.24697E-04  3003   0.435E-02    0.225E-02
RMM:  28    -0.757585596692E+02   -0.20692E-04   -0.37198E-04  2978   0.428E-02    0.229E-02
RMM:  29    -0.757585660890E+02   -0.64198E-05   -0.22611E-04  2899   0.419E-02    0.231E-02
RMM:  30    -0.757585839859E+02   -0.17897E-04   -0.34074E-04  2829   0.412E-02    0.238E-02
RMM:  31    -0.757585887918E+02   -0.48058E-05   -0.20879E-04  2801   0.405E-02    0.242E-02
RMM:  32    -0.757586043216E+02   -0.15530E-04   -0.31553E-04  2794   0.402E-02    0.250E-02
RMM:  33    -0.757586079392E+02   -0.36176E-05   -0.19441E-04  2744   0.392E-02    0.257E-02
RMM:  34    -0.757586212480E+02   -0.13309E-04   -0.29359E-04  2701   0.389E-02    0.260E-02
RMM:  35    -0.757586238127E+02   -0.25647E-05   -0.18413E-04  2705   0.384E-02    0.264E-02
RMM:  36    -0.757586353995E+02   -0.11587E-04   -0.27506E-04  2661   0.380E-02    0.268E-02
RMM:  37    -0.757586371269E+02   -0.17274E-05   -0.17513E-04  2670   0.376E-02    0.272E-02
RMM:  38    -0.757586472958E+02   -0.10169E-04   -0.26025E-04  2625   0.373E-02    0.276E-02
RMM:  39    -0.757586481711E+02   -0.87534E-06   -0.16725E-04  2644   0.371E-02    0.279E-02
RMM:  40    -0.757586569920E+02   -0.88208E-05   -0.24671E-04  2623   0.366E-02    0.282E-02
RMM:  41    -0.757586572873E+02   -0.29537E-06   -0.16051E-04  2608   0.363E-02    0.285E-02
RMM:  42    -0.757586649754E+02   -0.76880E-05   -0.23498E-04  2595   0.361E-02    0.289E-02
RMM:  43    -0.757586648460E+02    0.12941E-06   -0.15575E-04  2594   0.357E-02    0.292E-02
RMM:  44    -0.757586714972E+02   -0.66512E-05   -0.22438E-04  2582   0.357E-02    0.297E-02
RMM:  45    -0.757586708383E+02    0.65895E-06   -0.15085E-04  2576   0.353E-02    0.300E-02
RMM:  46    -0.757586765715E+02   -0.57332E-05   -0.21543E-04  2574   0.352E-02    0.303E-02
RMM:  47    -0.757586754623E+02    0.11091E-05   -0.14804E-04  2619   0.350E-02    0.301E-02
RMM:  48    -0.757586803306E+02   -0.48683E-05   -0.20702E-04  2567   0.348E-02    0.305E-02
RMM:  49    -0.757586790150E+02    0.13157E-05   -0.14529E-04  2601   0.347E-02    0.307E-02
RMM:  50    -0.757586831200E+02   -0.41050E-05   -0.19956E-04  2538   0.344E-02    0.310E-02
RMM:  51    -0.757586815182E+02    0.16017E-05   -0.14269E-04  2574   0.342E-02    0.312E-02
RMM:  52    -0.757586851344E+02   -0.36162E-05   -0.19377E-04  2662   0.342E-02    0.317E-02
RMM:  53    -0.757586831521E+02    0.19823E-05   -0.14034E-04  2618   0.340E-02    0.315E-02
RMM:  54    -0.757586854733E+02   -0.23212E-05   -0.18802E-04  2618   0.339E-02    0.301E-02
RMM:  55    -0.757586831323E+02    0.23410E-05   -0.13817E-04  2677   0.337E-02    0.298E-02
RMM:  56    -0.757586852516E+02   -0.21193E-05   -0.18225E-04  2594   0.337E-02    0.298E-02
RMM:  57    -0.757586831549E+02    0.20967E-05   -0.13724E-04  2579   0.335E-02    0.308E-02
RMM:  58    -0.757586847464E+02   -0.15915E-05   -0.17743E-04  2534   0.334E-02    0.309E-02
RMM:  59    -0.757586822975E+02    0.24490E-05   -0.13659E-04  2537   0.333E-02    0.311E-02
RMM:  60    -0.757586834911E+02   -0.11936E-05   -0.17379E-04  2510   0.331E-02    0.313E-02
RMM:  61    -0.757586807391E+02    0.27519E-05   -0.13485E-04  2495   0.330E-02    0.314E-02
RMM:  62    -0.757586798550E+02    0.88412E-06   -0.17022E-04  3278   0.336E-02    0.260E-02
RMM:  63    -0.757586771289E+02    0.27261E-05   -0.13485E-04  2877   0.332E-02    0.262E-02
RMM:  64    -0.757586773656E+02   -0.23672E-06   -0.16563E-04  2570   0.327E-02    0.263E-02
RMM:  65    -0.757586746316E+02    0.27340E-05   -0.13460E-04  2542   0.325E-02    0.267E-02
RMM:  66    -0.757586744254E+02    0.20627E-06   -0.16140E-04  2489   0.324E-02    0.269E-02
RMM:  67    -0.757586708896E+02    0.35358E-05   -0.13462E-04  2689   0.324E-02    0.259E-02
RMM:  68    -0.757586699533E+02    0.93627E-06   -0.15871E-04  2646   0.324E-02    0.255E-02
RMM:  69    -0.757586665222E+02    0.34311E-05   -0.13479E-04  2827   0.323E-02    0.246E-02
RMM:  70    -0.757586653931E+02    0.11292E-05   -0.15582E-04  2602   0.322E-02    0.245E-02
RMM:  71    -0.757586621857E+02    0.32074E-05   -0.13392E-04  2463   0.319E-02    0.249E-02
RMM:  72    -0.757586603517E+02    0.18339E-05   -0.15243E-04  2731   0.319E-02    0.242E-02
RMM:  73    -0.757586574766E+02    0.28751E-05   -0.13449E-04  2634   0.319E-02    0.251E-02
RMM:  74    -0.757586560999E+02    0.13767E-05   -0.15039E-04  2647   0.318E-02    0.257E-02
RMM:  75    -0.757586528176E+02    0.32824E-05   -0.13448E-04  2610   0.317E-02    0.263E-02
RMM:  76    -0.757586508444E+02    0.19732E-05   -0.14883E-04  2513   0.316E-02    0.268E-02
RMM:  77    -0.757586482702E+02    0.25742E-05   -0.13534E-04  3089   0.319E-02    0.285E-02
RMM:  78    -0.757586458536E+02    0.24165E-05   -0.14716E-04  2675   0.317E-02    0.287E-02
RMM:  79    -0.757586419858E+02    0.38679E-05   -0.13530E-04  2430   0.313E-02    0.286E-02
RMM:  80    -0.757586390232E+02    0.29625E-05   -0.14450E-04  2406   0.313E-02    0.285E-02
RMM:  81    -0.757586351982E+02    0.38250E-05   -0.13632E-04  2396   0.313E-02    0.284E-02
RMM:  82    -0.757586306343E+02    0.45639E-05   -0.14182E-04  3071   0.317E-02    0.251E-02
RMM:  83    -0.757586267336E+02    0.39007E-05   -0.13712E-04  2634   0.314E-02    0.248E-02
RMM:  84    -0.757586231081E+02    0.36255E-05   -0.14022E-04  2607   0.312E-02    0.245E-02
RMM:  85    -0.757586192474E+02    0.38607E-05   -0.13754E-04  2482   0.312E-02    0.248E-02
RMM:  86    -0.757586154623E+02    0.37851E-05   -0.13946E-04  2492   0.312E-02    0.250E-02
[...]
RMM:   6    -0.757726993234E+02   -0.47908E-04   -0.76873E-04  6650   0.909E-02    0.401E-02
RMM:   7    -0.757727235607E+02   -0.24237E-04   -0.41899E-04  5937   0.690E-02    0.212E-02
RMM:   8    -0.757727495366E+02   -0.25976E-04   -0.32395E-04  5530   0.551E-02    0.908E-03
RMM:   9    -0.757727655132E+02   -0.15977E-04   -0.21067E-04  4605   0.447E-02    0.466E-03
RMM:  10    -0.757727801595E+02   -0.14646E-04   -0.18830E-04  4390   0.381E-02    0.424E-03
RMM:  11    -0.757727903967E+02   -0.10237E-04   -0.13868E-04  4132   0.339E-02    0.488E-03
RMM:  12    -0.757728002141E+02   -0.98173E-05   -0.13354E-04  3991   0.308E-02    0.701E-03
RMM:  13    -0.757728068001E+02   -0.65860E-05   -0.10259E-04  3929   0.289E-02    0.206E-03
RMM:  14    -0.757728136208E+02   -0.68208E-05   -0.10264E-04  3751   0.267E-02    0.234E-03
RMM:  15    -0.757728185209E+02   -0.49001E-05   -0.83048E-05  3577   0.254E-02
  14 F= -.78602663E+02 E0= -.78600365E+02  d E =-.119473E-01
       N       E                     dE             d eps       ncg     rms          rms(c)
DAV:   1    -0.757198690814E+02    0.52945E-01   -0.13290E+01  5448   0.114E+01    0.641E-01
RMM:   2    -0.757642097570E+02   -0.44341E-01   -0.47352E-01  6771   0.264E+00    0.386E-01
RMM:   3    -0.757787754450E+02   -0.14566E-01   -0.14089E-01  7727   0.135E+00    0.466E-01
RMM:   4    -0.757797052929E+02   -0.92985E-03   -0.30545E-02  7605   0.611E-01    0.268E-01
RMM:   5    -0.757817440692E+02   -0.20388E-02   -0.94093E-03  7954   0.340E-01    0.285E-01
RMM:   6    -0.757804335306E+02    0.13105E-02   -0.46599E-03  7784   0.220E-01    0.108E-01
RMM:   7    -0.757805404203E+02   -0.10689E-03   -0.21274E-03  7594   0.153E-01    0.502E-02
RMM:   8    -0.757806496624E+02   -0.10924E-03   -0.15561E-03  6987   0.110E-01    0.217E-02
RMM:   9    -0.757807235256E+02   -0.73863E-04   -0.89724E-04  6298   0.852E-02    0.157E-02
RMM:  10    -0.757808015551E+02   -0.78030E-04   -0.84755E-04  5773   0.708E-02    0.153E-02
RMM:  11    -0.757808454420E+02   -0.43887E-04   -0.49118E-04  5300   0.599E-02    0.105E-02
RMM:  12    -0.757808926334E+02   -0.47191E-04   -0.54383E-04  4991   0.539E-02    0.349E-03
RMM:  13    -0.757809178930E+02   -0.25260E-04   -0.31521E-04  4540   0.487E-02    0.412E-03
RMM:  14    -0.757809507611E+02   -0.32868E-04   -0.39670E-04  4341   0.444E-02    0.564E-03
RMM:  15    -0.757809667198E+02   -0.15959E-04   -0.22864E-04  4121   0.412E-02    0.912E-03
RMM:  16    -0.757809914887E+02   -0.24769E-04   -0.31047E-04  3977   0.391E-02    0.647E-03
RMM:  17    -0.757810034387E+02   -0.11950E-04   -0.17821E-04  3935   0.370E-02    0.374E-03
RMM:  18    -0.757810229950E+02   -0.19556E-04   -0.25640E-04  3763   0.356E-02    0.389E-03
RMM:  19    -0.757810312958E+02   -0.83008E-05   -0.14724E-04  3514   0.341E-02    0.423E-03
RMM:  20    -0.757810463610E+02   -0.15065E-04   -0.21715E-04  3317   0.329E-02    0.381E-03
RMM:  21    -0.757810521051E+02   -0.57441E-05   -0.12434E-04  3215   0.317E-02    0.403E-03
RMM:  22    -0.757810650166E+02   -0.12912E-04   -0.19036E-04  3194   0.308E-02    0.308E-03
RMM:  23    -0.757810696211E+02   -0.46045E-05   -0.10829E-04  3095   0.299E-02    0.263E-03
RMM:  24    -0.757810802381E+02   -0.10617E-04   -0.16985E-04  2963   0.293E-02    0.245E-03
RMM:  25    -0.757810836663E+02   -0.34282E-05   -0.97187E-05  2861   0.286E-02
  15 F= -.78610997E+02 E0= -.78608658E+02  d E =-.833419E-02
       N       E                     dE             d eps       ncg     rms          rms(c)
DAV:   1    -0.757692913527E+02    0.11789E-01   -0.29758E+00  5560   0.533E+00    0.315E-01
RMM:   2    -0.757788041151E+02   -0.95128E-02   -0.10188E-01  6657   0.122E+00    0.177E-01
RMM:   3    -0.757819256149E+02   -0.31215E-02   -0.30772E-02  7670   0.633E-01    0.176E-01
RMM:   4    -0.757822112358E+02   -0.28562E-03   -0.67002E-03  7662   0.292E-01    0.107E-01
RMM:   5    -0.757823528433E+02   -0.14161E-03   -0.22115E-03  7546   0.168E-01    0.654E-02
RMM:   6    -0.757824865787E+02   -0.13374E-03   -0.12621E-03  7010   0.113E-01    0.574E-02
RMM:   7    -0.757825039779E+02   -0.17399E-04   -0.64566E-04  6447   0.829E-02    0.331E-02
RMM:   8    -0.757825316630E+02   -0.27685E-04   -0.53519E-04  5591   0.641E-02    0.126E-02
RMM:   9    -0.757825591275E+02   -0.27464E-04   -0.33910E-04  5103   0.529E-02    0.983E-03
RMM:  10    -0.757825853435E+02   -0.26216E-04   -0.31657E-04  4520   0.452E-02    0.381E-03
RMM:  11    -0.757826005399E+02   -0.15196E-04   -0.20314E-04  4231   0.393E-02    0.193E-03
RMM:  12    -0.757826180471E+02   -0.17507E-04   -0.22314E-04  4042   0.363E-02    0.243E-03
RMM:  13    -0.757826279871E+02   -0.99400E-05   -0.14669E-04  3840   0.328E-02    0.144E-03
RMM:  14    -0.757826406108E+02   -0.12624E-04   -0.17401E-04  3697   0.311E-02    0.113E-03
RMM:  15    -0.757826478024E+02   -0.71917E-05   -0.11639E-04  3540   0.292E-02    0.167E-03
RMM:  16    -0.757826572799E+02   -0.94774E-05   -0.14462E-04  3424   0.280E-02    0.207E-03
RMM:  17    -0.757826622603E+02   -0.49805E-05   -0.98409E-05  3189   0.268E-02
  16 F= -.78612677E+02 E0= -.78610354E+02  d E =-.100146E-01
       N       E                     dE             d eps       ncg     rms          rms(c)
DAV:   1    -0.757347611611E+02    0.47896E-01   -0.17879E+01  5856   0.115E+01    0.516E-01
RMM:   2    -0.757717730723E+02   -0.37012E-01   -0.39298E-01  6949   0.250E+00    0.227E-01
RMM:   3    -0.757855720908E+02   -0.13799E-01   -0.14243E-01  7729   0.130E+00    0.173E-01
RMM:   4    -0.757879387634E+02   -0.23667E-02   -0.26456E-02  7640   0.581E-01    0.187E-01
RMM:   5    -0.757885362709E+02   -0.59751E-03   -0.81887E-03  7560   0.307E-01    0.153E-01
RMM:   6    -0.757886031673E+02   -0.66896E-04   -0.33430E-03  7421   0.187E-01    0.906E-02
RMM:   7    -0.757887049658E+02   -0.10180E-03   -0.16246E-03  7111   0.126E-01    0.695E-02
RMM:   8    -0.757887764966E+02   -0.71531E-04   -0.10459E-03  6681   0.954E-02    0.287E-02
RMM:   9    -0.757888266453E+02   -0.50149E-04   -0.63751E-04  6092   0.755E-02    0.180E-02
RMM:  10    -0.757888718664E+02   -0.45221E-04   -0.53634E-04  5622   0.599E-02    0.101E-02
RMM:  11    -0.757889017144E+02   -0.29848E-04   -0.35821E-04  5253   0.510E-02    0.108E-02
RMM:  12    -0.757889312649E+02   -0.29551E-04   -0.34293E-04  4599   0.446E-02    0.106E-02
RMM:  13    -0.757889490492E+02   -0.17784E-04   -0.22491E-04  4467   0.401E-02    0.579E-03
RMM:  14    -0.757889694972E+02   -0.20448E-04   -0.24376E-04  4240   0.373E-02    0.775E-03
RMM:  15    -0.757889810417E+02   -0.11544E-04   -0.16881E-04  4169   0.350E-02    0.174E-03
RMM:  16    -0.757889957846E+02   -0.14743E-04   -0.19108E-04  3881   0.324E-02    0.306E-03
RMM:  17    -0.757890045108E+02   -0.87262E-05   -0.13089E-04  3762   0.307E-02    0.433E-03
RMM:  18    -0.757890157281E+02   -0.11217E-04   -0.15507E-04  3568   0.290E-02    0.532E-03
RMM:  19    -0.757890221667E+02   -0.64386E-05   -0.10712E-04  3437   0.280E-02    0.614E-03
RMM:  20    -0.757890311745E+02   -0.90079E-05   -0.13231E-04  3222   0.270E-02    0.714E-03
RMM:  21    -0.757890360273E+02   -0.48527E-05   -0.90655E-05  3118   0.261E-02
  17 F= -.78619562E+02 E0= -.78617513E+02  d E =-.688457E-02
       N       E                     dE             d eps       ncg     rms          rms(c)
DAV:   1    -0.757855964659E+02    0.34347E-02   -0.15306E+00  5704   0.329E+00    0.142E-01
RMM:   2    -0.757883667847E+02   -0.27703E-02   -0.29473E-02  6773   0.703E-01    0.641E-02
RMM:   3    -0.757894994672E+02   -0.11327E-02   -0.11480E-02  7432   0.373E-01    0.587E-02
RMM:   4    -0.757897019560E+02   -0.20249E-03   -0.21562E-03  7079   0.172E-01    0.643E-02
RMM:   5    -0.757897256453E+02   -0.23689E-04   -0.77214E-04  6710   0.975E-02    0.344E-02
RMM:   6    -0.757897477238E+02   -0.22079E-04   -0.35929E-04  6115   0.640E-02    0.246E-02
RMM:   7    -0.757897686295E+02   -0.20906E-04   -0.22580E-04  5358   0.486E-02    0.158E-02
RMM:   8    -0.757897784811E+02   -0.98516E-05   -0.15155E-04  4724   0.385E-02    0.841E-03
RMM:   9    -0.757897869618E+02   -0.84806E-05   -0.12158E-04  4258   0.331E-02    0.376E-03
RMM:  10    -0.757897936973E+02   -0.67355E-05   -0.90581E-05  4034   0.282E-02
  18 F= -.78620506E+02 E0= -.78618549E+02  d E =-.782844E-02
       N       E                     dE             d eps       ncg     rms          rms(c)
DAV:   1    -0.757393256444E+02    0.50461E-01   -0.18745E+01  5896   0.102E+01    0.519E-01
RMM:   2    -0.757792838159E+02   -0.39958E-01   -0.42204E-01  6904   0.226E+00    0.202E-01
RMM:   3    -0.757949099693E+02   -0.15626E-01   -0.14946E-01  7554   0.116E+00    0.312E-01
RMM:   4    -0.757955185536E+02   -0.60858E-03   -0.26663E-02  7614   0.516E-01    0.177E-01
RMM:   5    -0.757960879788E+02   -0.56943E-03   -0.83710E-03  7487   0.268E-01    0.133E-01
RMM:   6    -0.757962641225E+02   -0.17614E-03   -0.29205E-03  7123   0.160E-01    0.117E-01
RMM:   7    -0.757963146933E+02   -0.50571E-04   -0.13225E-03  6906   0.109E-01    0.719E-02
RMM:   8    -0.757963395002E+02   -0.24807E-04   -0.76510E-04  6626   0.848E-02    0.293E-02
RMM:   9    -0.757963732536E+02   -0.33753E-04   -0.42330E-04  5938   0.588E-02    0.197E-02
RMM:  10    -0.757963993305E+02   -0.26077E-04   -0.32511E-04  5218   0.464E-02    0.113E-02
RMM:  11    -0.757964177359E+02   -0.18405E-04   -0.21488E-04  4720   0.374E-02    0.990E-03
RMM:  12    -0.757964369368E+02   -0.19201E-04   -0.19769E-04  4403   0.323E-02    0.840E-03
RMM:  13    -0.757964512621E+02   -0.14325E-04   -0.13811E-04  4235   0.294E-02    0.135E-02
RMM:  14    -0.757964624565E+02   -0.11194E-04   -0.14627E-04  4036   0.276E-02    0.661E-03
RMM:  15    -0.757964707886E+02   -0.83322E-05   -0.10248E-04  3864   0.257E-02    0.192E-03
RMM:  16    -0.757964805355E+02   -0.97468E-05   -0.11112E-04  3751   0.243E-02    0.307E-03
RMM:  17    -0.757964870083E+02   -0.64728E-05   -0.78344E-05  3539   0.221E-02
  19 F= -.78626721E+02 E0= -.78624814E+02  d E =-.621586E-02
       N       E                     dE             d eps       ncg     rms          rms(c)
DAV:   1    -0.757906435087E+02    0.58370E-02   -0.28634E+00  5992   0.392E+00    0.202E-01
RMM:   2    -0.757956709760E+02   -0.50275E-02   -0.53039E-02  6804   0.834E-01    0.759E-02
RMM:   3    -0.757978306630E+02   -0.21597E-02   -0.19970E-02  7357   0.438E-01    0.123E-01
RMM:   4    -0.757978451790E+02   -0.14516E-04   -0.35583E-03  7106   0.200E-01    0.648E-02
RMM:   5    -0.757979413973E+02   -0.96218E-04   -0.12904E-03  6744   0.110E-01    0.519E-02
RMM:   6    -0.757979713474E+02   -0.29950E-04   -0.48595E-04  6288   0.687E-02    0.433E-02
RMM:   7    -0.757979888869E+02   -0.17540E-04   -0.27149E-04  5549   0.504E-02    0.273E-02
RMM:   8    -0.757979984744E+02   -0.95874E-05   -0.17584E-04  5180   0.404E-02    0.106E-02
RMM:   9    -0.757980079221E+02   -0.94478E-05   -0.11267E-04  4368   0.315E-02    0.729E-03
RMM:  10    -0.757980154860E+02   -0.75639E-05   -0.90658E-05  4028   0.258E-02
  20 F= -.78628093E+02 E0= -.78626216E+02  d E =-.758734E-02
       N       E                     dE             d eps       ncg     rms          rms(c)
DAV:   1    -0.757657264340E+02    0.32281E-01   -0.11488E+01  5824   0.794E+00    0.408E-01
RMM:   2    -0.757886456311E+02   -0.22919E-01   -0.24208E-01  6883   0.174E+00    0.154E-01
RMM:   3    -0.757978824614E+02   -0.92368E-02   -0.87712E-02  7550   0.897E-01    0.243E-01
RMM:   4    -0.757981493141E+02   -0.26685E-03   -0.15436E-02  7541   0.402E-01    0.134E-01
RMM:   5    -0.757985116523E+02   -0.36234E-03   -0.51131E-03  7400   0.211E-01    0.103E-01
RMM:   6    -0.757986253177E+02   -0.11367E-03   -0.18272E-03  6913   0.127E-01    0.895E-02
RMM:   7    -0.757986646305E+02   -0.39313E-04   -0.86052E-04  6689   0.894E-02    0.565E-02
RMM:   8    -0.757986875992E+02   -0.22969E-04   -0.53244E-04  6323   0.693E-02    0.225E-02
RMM:   9    -0.757987127042E+02   -0.25105E-04   -0.30218E-04  5579   0.497E-02    0.152E-02
RMM:  10    -0.757987332054E+02   -0.20501E-04   -0.24613E-04  4819   0.394E-02    0.883E-03
RMM:  11    -0.757987473857E+02   -0.14180E-04   -0.16475E-04  4462   0.333E-02    0.777E-03
RMM:  12    -0.757987623075E+02   -0.14922E-04   -0.15470E-04  4127   0.290E-02    0.744E-03
RMM:  13    -0.757987730423E+02   -0.10735E-04   -0.11000E-04  3983   0.263E-02    0.987E-03
RMM:  14    -0.757987827011E+02   -0.96589E-05   -0.11417E-04  3895   0.246E-02    0.974E-03
RMM:  15    -0.757987893468E+02   -0.66457E-05   -0.85611E-05  3702   0.231E-02
  21 F= -.78628606E+02 E0= -.78626804E+02  d E =-.810046E-02
       N       E                     dE             d eps       ncg     rms          rms(c)
DAV:   1    -0.757916686454E+02    0.71141E-02   -0.28390E+00  5808   0.391E+00    0.208E-01
RMM:   2    -0.757966998764E+02   -0.50312E-02   -0.53178E-02  6814   0.821E-01    0.747E-02
RMM:   3    -0.757988784668E+02   -0.21786E-02   -0.19702E-02  7417   0.430E-01    0.133E-01
RMM:   4    -0.757987956356E+02    0.82831E-04   -0.32638E-03  7039   0.188E-01    0.623E-02
RMM:   5    -0.757988682599E+02   -0.72624E-04   -0.10674E-03  6749   0.956E-02    0.512E-02
RMM:   6    -0.757988777253E+02   -0.94655E-05   -0.30991E-04  6124   0.530E-02    0.390E-02
RMM:   7    -0.757988810379E+02   -0.33126E-05   -0.12875E-04  5389   0.362E-02    0.268E-02
RMM:   8    -0.757988799229E+02    0.11150E-05   -0.58178E-05  4941   0.270E-02
  22 F= -.78628818E+02 E0= -.78626977E+02  d E =-.831203E-02
       N       E                     dE             d eps       ncg     rms          rms(c)
DAV:   1    -0.757975745345E+02    0.13065E-02   -0.60040E-01  6176   0.180E+00    0.883E-02
RMM:   2    -0.757985386171E+02   -0.96408E-03   -0.10140E-02  6412   0.374E-01    0.330E-02
RMM:   3    -0.757989769350E+02   -0.43832E-03   -0.40199E-03  6826   0.198E-01    0.593E-02
RMM:   4    -0.757989666838E+02    0.10251E-04   -0.66152E-04  6353   0.880E-02    0.289E-02
RMM:   5    -0.757989812174E+02   -0.14534E-04   -0.21454E-04  5751   0.466E-02    0.237E-02
RMM:   6    -0.757989851138E+02   -0.38964E-05   -0.79500E-05  4373   0.284E-02
  23 F= -.78628865E+02 E0= -.78627039E+02  d E =-.835928E-02
       N       E                     dE             d eps       ncg     rms          rms(c)
DAV:   1    -0.757986256826E+02    0.35553E-03   -0.14381E-01  5952   0.881E-01    0.519E-02
RMM:   2    -0.757988560318E+02   -0.23035E-03   -0.24489E-03  6180   0.186E-01    0.198E-02
RMM:   3    -0.757989763155E+02   -0.12028E-03   -0.96402E-04  6501   0.984E-02    0.373E-02
RMM:   4    -0.757989559392E+02    0.20376E-04   -0.15854E-04  5835   0.465E-02    0.148E-02
RMM:   5    -0.757989591237E+02   -0.31845E-05   -0.58395E-05  4159   0.256E-02
  24 F= -.78628867E+02 E0= -.78627031E+02  d E =-.836123E-02
       N       E                     dE             d eps       ncg     rms          rms(c)
DAV:   1    -0.757988988076E+02    0.57132E-04   -0.34022E-02  6160   0.429E-01    0.268E-02
RMM:   2    -0.757989523846E+02   -0.53577E-04   -0.58423E-04  5749   0.957E-02    0.102E-02
RMM:   3    -0.757989791402E+02   -0.26756E-04   -0.23931E-04  5679   0.493E-02    0.183E-02
RMM:   4    -0.757989780906E+02    0.10496E-05   -0.46107E-05  4124   0.260E-02
  25 F= -.78628872E+02 E0= -.78627042E+02  d E =-.836643E-02
       N       E                     dE             d eps       ncg     rms          rms(c)
DAV:   1    -0.757823080307E+02    0.16671E-01   -0.58968E+00  5616   0.600E+00    0.297E-01
RMM:   2    -0.757970517339E+02   -0.14744E-01   -0.16035E-01  6749   0.130E+00    0.154E-01
RMM:   3    -0.758015775823E+02   -0.45258E-02   -0.45976E-02  7664   0.660E-01    0.206E-01
RMM:   4    -0.758019411638E+02   -0.36358E-03   -0.82699E-03  7498   0.289E-01    0.140E-01
RMM:   5    -0.758020327101E+02   -0.91546E-04   -0.27572E-03  7371   0.155E-01    0.669E-02
RMM:   6    -0.758021319662E+02   -0.99256E-04   -0.95193E-04  6942   0.900E-02    0.434E-02
RMM:   7    -0.758021387454E+02   -0.67792E-05   -0.44730E-04  6358   0.636E-02    0.188E-02
RMM:   8    -0.758021562631E+02   -0.17518E-04   -0.26967E-04  5701   0.441E-02    0.137E-02
RMM:   9    -0.758021664910E+02   -0.10228E-04   -0.15480E-04  5122   0.347E-02    0.685E-03
RMM:  10    -0.758021790785E+02   -0.12587E-04   -0.12817E-04  4537   0.271E-02    0.683E-03
RMM:  11    -0.758021853661E+02   -0.62876E-05   -0.74233E-05  4211   0.225E-02
  26 F= -.78631669E+02 E0= -.78629977E+02  d E =-.279714E-02
       N       E                     dE             d eps       ncg     rms          rms(c)
DAV:   1    -0.756284493422E+02    0.17373E+00   -0.42319E+01  5616   0.166E+01    0.928E-01
RMM:   2    -0.757595316305E+02   -0.13108E+00   -0.14257E+00  6834   0.381E+00    0.401E-01
RMM:   3    -0.757985564177E+02   -0.39025E-01   -0.40456E-01  7913   0.192E+00    0.515E-01
RMM:   4    -0.758044693159E+02   -0.59129E-02   -0.84479E-02  7892   0.841E-01    0.413E-01
RMM:   5    -0.758051854604E+02   -0.71614E-03   -0.21442E-02  7911   0.437E-01    0.242E-01
RMM:   6    -0.758055717017E+02   -0.38624E-03   -0.88417E-03  7692   0.254E-01    0.153E-01
RMM:   7    -0.758056792230E+02   -0.10752E-03   -0.34726E-03  7499   0.175E-01    0.534E-02
RMM:   8    -0.758058940776E+02   -0.21485E-03   -0.22614E-03  7193   0.125E-01    0.496E-02
RMM:   9    -0.758059615652E+02   -0.67488E-04   -0.10777E-03  6625   0.922E-02    0.357E-02
RMM:  10    -0.758060601628E+02   -0.98598E-04   -0.11132E-03  6205   0.744E-02    0.217E-02
RMM:  11    -0.758061146720E+02   -0.54509E-04   -0.55708E-04  5773   0.594E-02    0.213E-02
RMM:  12    -0.758061653921E+02   -0.50720E-04   -0.60318E-04  5415   0.510E-02    0.599E-03
RMM:  13    -0.758061975722E+02   -0.32180E-04   -0.32385E-04  5137   0.455E-02    0.133E-02
RMM:  14    -0.758062345333E+02   -0.36961E-04   -0.42447E-04  4772   0.410E-02    0.554E-03
RMM:  15    -0.758062544554E+02   -0.19922E-04   -0.22335E-04  4420   0.369E-02    0.684E-03
RMM:  16    -0.758062829462E+02   -0.28491E-04   -0.31218E-04  4216   0.342E-02    0.902E-03
RMM:  17    -0.758062965250E+02   -0.13579E-04   -0.16094E-04  3916   0.317E-02    0.709E-03
RMM:  18    -0.758063189199E+02   -0.22395E-04   -0.24716E-04  3903   0.305E-02    0.684E-03
RMM:  19    -0.758063292215E+02   -0.10302E-04   -0.12665E-04  3683   0.288E-02    0.771E-03
RMM:  20    -0.758063468149E+02   -0.17593E-04   -0.20079E-04  3451   0.276E-02    0.943E-03
RMM:  21    -0.758063546274E+02   -0.78125E-05   -0.10059E-04  3337   0.266E-02    0.951E-03
RMM:  22    -0.758063691763E+02   -0.14549E-04   -0.16908E-04  3195   0.261E-02    0.108E-02
RMM:  23    -0.758063753186E+02   -0.61423E-05   -0.84125E-05  3073   0.250E-02
  27 F= -.78634895E+02 E0= -.78633595E+02  d E =-.602279E-02
       N       E                     dE             d eps       ncg     rms          rms(c)
DAV:   1    -0.758003549076E+02    0.60143E-02   -0.18032E+00  5616   0.442E+00    0.195E-01
RMM:   2    -0.758060097533E+02   -0.56548E-02   -0.61768E-02  6636   0.101E+00    0.109E-01
RMM:   3    -0.758079746747E+02   -0.19649E-02   -0.19852E-02  7785   0.526E-01    0.103E-01
RMM:   4    -0.758084207486E+02   -0.44607E-03   -0.44922E-03  7678   0.240E-01    0.113E-01
RMM:   5    -0.758083897800E+02    0.30969E-04   -0.14264E-03  7489   0.133E-01    0.479E-02
RMM:   6    -0.758084473681E+02   -0.57588E-04   -0.73676E-04  6980   0.828E-02    0.311E-02
RMM:   7    -0.758084702180E+02   -0.22850E-04   -0.33084E-04  6188   0.588E-02    0.146E-02
RMM:   8    -0.758084907763E+02   -0.20558E-04   -0.24232E-04  5373   0.443E-02    0.945E-03
RMM:   9    -0.758085019940E+02   -0.11218E-04   -0.13531E-04  4758   0.352E-02    0.489E-03
RMM:  10    -0.758085138515E+02   -0.11858E-04   -0.12901E-04  4548   0.294E-02    0.374E-03
RMM:  11    -0.758085199468E+02   -0.60953E-05   -0.70725E-05  4240   0.250E-02
  28 F= -.78637169E+02 E0= -.78635956E+02  d E =-.227375E-02
