       N       E                     dE             d eps       ncg     rms          rms(c)
DAV:   1     0.286105713597E+04    0.28611E+04   -0.88967E+04  7048   0.227E+03
DAV:   2     0.567743975330E+03   -0.22933E+04   -0.21957E+04  5616   0.748E+02
DAV:   3    -0.182706639815E+02   -0.58601E+03   -0.56016E+03  6560   0.265E+02
DAV:   4    -0.998470679210E+02   -0.81576E+02   -0.80176E+02  7776   0.102E+02
DAV:   5    -0.105693444492E+03   -0.58464E+01   -0.57822E+01  8360   0.274E+01    0.302E+01
DAV:   6    -0.103124795130E+03    0.25686E+01   -0.48866E+01  8424   0.225E+01    0.324E+01
DAV:   7    -0.103854954646E+03   -0.73016E+00   -0.17412E+02  7248   0.307E+01    0.210E+01
DAV:   8    -0.103972876983E+03   -0.11792E+00   -0.41143E+01  8024   0.217E+01    0.191E+01
DAV:   9    -0.100715532386E+03    0.32573E+01   -0.22359E+01  6976   0.108E+01    0.118E+01
DAV:  10    -0.974461885089E+02    0.32693E+01   -0.67677E+00  7240   0.960E+00    0.777E+00
DAV:  11    -0.964510133290E+02    0.99518E+00   -0.29032E+00  8088   0.616E+00    0.355E+00
DAV:  12    -0.962997458417E+02    0.15127E+00   -0.61868E-01  7456   0.257E+00    0.157E+00
DAV:  13    -0.962958423704E+02    0.39035E-02   -0.90395E-02  7712   0.161E+00    0.120E+00
DAV:  14    -0.962873578276E+02    0.84845E-02   -0.43679E-02  7936   0.961E-01    0.963E-01
DAV:  15    -0.962734015693E+02    0.13956E-01   -0.72376E-02  7168   0.907E-01    0.465E-01
DAV:  16    -0.962718057039E+02    0.15959E-02   -0.21091E-02  7472   0.447E-01    0.219E-01
DAV:  17    -0.962711990443E+02    0.60666E-03   -0.28576E-03  6808   0.186E-01    0.177E-01
DAV:  18    -0.962703669623E+02    0.83208E-03   -0.62199E-03  6768   0.274E-01    0.184E-01
DAV:  19    -0.962701068944E+02    0.26007E-03   -0.12197E-03  6992   0.123E-01    0.106E-01
DAV:  20    -0.962702032142E+02   -0.96320E-04   -0.18273E-03  5952   0.121E-01    0.113E-01
DAV:  21    -0.962703431415E+02   -0.13993E-03   -0.87780E-04  5904   0.102E-01    0.362E-02
DAV:  22    -0.962707743267E+02   -0.43119E-03   -0.99171E-05  5056   0.346E-02    0.143E-02
DAV:  23    -0.962712575656E+02   -0.48324E-03   -0.12108E-04  5208   0.368E-02    0.360E-02
DAV:  24    -0.962715242846E+02   -0.26672E-03   -0.28128E-05  4840   0.207E-02    0.298E-02
DAV:  25    -0.962716312804E+02   -0.10700E-03   -0.38301E-05  4896   0.186E-02    0.243E-03
DAV:  26    -0.962716749248E+02   -0.43644E-04   -0.47388E-06  4152   0.123E-02    0.189E-03
DAV:  27    -0.962716985482E+02   -0.23623E-04   -0.23318E-06  3960   0.732E-03    0.212E-03
DAV:  28    -0.962717115870E+02   -0.13039E-04   -0.16149E-06  3952   0.670E-03    0.217E-03
DAV:  29    -0.962717131783E+02   -0.15913E-05   -0.67497E-07  3896   0.477E-03
   1 F= -.99264645E+02 E0= -.99263676E+02  d E =-.290773E-02
       N       E                     dE             d eps       ncg     rms          rms(c)
DAV:   1    -0.962706399159E+02    0.10717E-02   -0.13164E-01  4576   0.289E-01    0.100E-01
DAV:   2    -0.962707724527E+02   -0.13254E-03   -0.10999E-03  5912   0.380E-02    0.621E-02
DAV:   3    -0.962708194104E+02   -0.46958E-04   -0.11342E-04  5008   0.275E-02    0.140E-02
DAV:   4    -0.962708443554E+02   -0.24945E-04   -0.17292E-04  5472   0.502E-02    0.317E-02
DAV:   5    -0.962708212621E+02    0.23093E-04   -0.79405E-05  4752   0.322E-02    0.797E-03
DAV:   6    -0.962708205410E+02    0.72109E-06   -0.44359E-06  3664   0.861E-03
   2 F= -.99263745E+02 E0= -.99262778E+02  d E =-.289993E-02
       N       E                     dE             d eps       ncg     rms          rms(c)
DAV:   1    -0.962699546449E+02    0.86662E-03   -0.52554E-01  4512   0.596E-01    0.204E-01
DAV:   2    -0.962704153107E+02   -0.46067E-03   -0.38212E-03  5824   0.711E-02    0.124E-01
DAV:   3    -0.962705842128E+02   -0.16890E-03   -0.40095E-04  5272   0.433E-02    0.333E-02
DAV:   4    -0.962706505443E+02   -0.66331E-04   -0.37255E-04  6312   0.731E-02    0.538E-02
DAV:   5    -0.962706008958E+02    0.49649E-04   -0.15843E-04  5440   0.435E-02    0.140E-02
DAV:   6    -0.962705990740E+02    0.18218E-05   -0.22030E-05  4368   0.170E-02
   3 F= -.99263542E+02 E0= -.99262566E+02  d E =-.292671E-02
       N       E                     dE             d eps       ncg     rms          rms(c)
DAV:   1    -0.962657929906E+02    0.48079E-02   -0.26790E-01  4744   0.442E-01    0.214E-01
DAV:   2    -0.962657331014E+02    0.59889E-04   -0.63517E-03  5976   0.868E-02    0.122E-01
DAV:   3    -0.962657209161E+02    0.12185E-04   -0.49978E-04  6208   0.294E-02    0.646E-02
DAV:   4    -0.962657713824E+02   -0.50466E-04   -0.23015E-04  6048   0.443E-02    0.513E-02
DAV:   5    -0.962657503085E+02    0.21074E-04   -0.31550E-04  6136   0.544E-02    0.336E-02
DAV:   6    -0.962657353460E+02    0.14962E-04   -0.45999E-05  4864   0.189E-02    0.571E-03
DAV:   7    -0.962657360141E+02   -0.66813E-06   -0.79933E-06  3848   0.125E-02
   4 F= -.99258780E+02 E0= -.99257810E+02  d E =-.291085E-02
       N       E                     dE             d eps       ncg     rms          rms(c)
DAV:   1    -0.962654206355E+02    0.31471E-03   -0.57184E-01  4800   0.630E-01    0.406E-01
DAV:   2    -0.962642552489E+02    0.11654E-02   -0.21483E-02  5736   0.162E-01    0.221E-01
DAV:   3    -0.962640735247E+02    0.18172E-03   -0.21122E-03  6232   0.713E-02    0.114E-01
DAV:   4    -0.962641752843E+02   -0.10176E-03   -0.10332E-03  6552   0.123E-01    0.632E-02
DAV:   5    -0.962641556015E+02    0.19683E-04   -0.16346E-03  6648   0.167E-01    0.670E-02
DAV:   6    -0.962640972405E+02    0.58361E-04   -0.46776E-04  6056   0.590E-02    0.502E-02
DAV:   7    -0.962640579278E+02    0.39313E-04   -0.11793E-04  5376   0.378E-02    0.951E-03
DAV:   8    -0.962640591024E+02   -0.11747E-05   -0.12525E-05  4872   0.110E-02
   5 F= -.99256885E+02 E0= -.99255914E+02  d E =-.291088E-02
       N       E                     dE             d eps       ncg     rms          rms(c)
DAV:   1    -0.962711530918E+02   -0.70952E-02   -0.29411E-01  4840   0.427E-01    0.314E-01
DAV:   2    -0.962701591542E+02    0.99394E-03   -0.11347E-02  5696   0.122E-01    0.163E-01
DAV:   3    -0.962701093358E+02    0.49818E-04   -0.15728E-03  6360   0.761E-02    0.100E-01
DAV:   4    -0.962702252682E+02   -0.11593E-03   -0.10903E-03  6624   0.137E-01    0.828E-02
DAV:   5    -0.962701105256E+02    0.11474E-03   -0.10265E-03  6536   0.130E-01    0.414E-02
DAV:   6    -0.962701076082E+02    0.29174E-05   -0.17281E-04  6016   0.314E-02    0.369E-02
DAV:   7    -0.962700834365E+02    0.24172E-04   -0.95836E-05  5056   0.348E-02    0.807E-03
DAV:   8    -0.962700842546E+02   -0.81817E-06   -0.89882E-06  4704   0.993E-03
   6 F= -.99262956E+02 E0= -.99261979E+02  d E =-.293080E-02
       N       E                     dE             d eps       ncg     rms          rms(c)
DAV:   1    -0.962693697640E+02    0.71367E-03   -0.53515E-01  4728   0.577E-01    0.285E-01
DAV:   2    -0.962692580476E+02    0.11172E-03   -0.79077E-03  5920   0.113E-01    0.154E-01
DAV:   3    -0.962693876637E+02   -0.12962E-03   -0.10042E-03  6424   0.742E-02    0.844E-02
DAV:   4    -0.962696062403E+02   -0.21858E-03   -0.12903E-03  6488   0.138E-01    0.110E-01
DAV:   5    -0.962694193046E+02    0.18694E-03   -0.77946E-04  6320   0.924E-02    0.411E-02
DAV:   6    -0.962694099185E+02    0.93860E-05   -0.32197E-04  5448   0.644E-02    0.290E-02
DAV:   7    -0.962693929382E+02    0.16980E-04   -0.92450E-05  5488   0.366E-02    0.607E-03
DAV:   8    -0.962693952088E+02   -0.22706E-05   -0.41973E-06  4064   0.780E-03
   7 F= -.99262380E+02 E0= -.99261418E+02  d E =-.288836E-02
       N       E                     dE             d eps       ncg     rms          rms(c)
DAV:   1    -0.962648301059E+02    0.45628E-02   -0.27224E-01  4784   0.455E-01    0.219E-01
DAV:   2    -0.962650968128E+02   -0.26671E-03   -0.58683E-03  5656   0.950E-02    0.133E-01
DAV:   3    -0.962650717867E+02    0.25026E-04   -0.44477E-04  6560   0.384E-02    0.636E-02
DAV:   4    -0.962654006112E+02   -0.32882E-03   -0.13891E-03  6432   0.106E-01    0.146E-01
DAV:   5    -0.962650716803E+02    0.32893E-03   -0.91306E-04  6480   0.910E-02    0.112E-02
DAV:   6    -0.962650760623E+02   -0.43820E-05   -0.37514E-05  5360   0.146E-02
   8 F= -.99257871E+02 E0= -.99256895E+02  d E =-.292993E-02
       N       E                     dE             d eps       ncg     rms          rms(c)
DAV:   1    -0.962672649203E+02   -0.21932E-02   -0.56089E-01  4976   0.640E-01    0.379E-01
DAV:   2    -0.962664245649E+02    0.84036E-03   -0.19778E-02  5680   0.161E-01    0.208E-01
DAV:   3    -0.962663014240E+02    0.12314E-03   -0.19168E-03  6344   0.654E-02    0.116E-01
DAV:   4    -0.962663844734E+02   -0.83049E-04   -0.80913E-04  6568   0.108E-01    0.637E-02
DAV:   5    -0.962663438684E+02    0.40605E-04   -0.11907E-03  6368   0.151E-01    0.402E-02
DAV:   6    -0.962663164376E+02    0.27431E-04   -0.39091E-04  6056   0.769E-02    0.432E-02
DAV:   7    -0.962662914741E+02    0.24963E-04   -0.80345E-05  5128   0.235E-02    0.103E-02
DAV:   8    -0.962662916972E+02   -0.22302E-06   -0.82582E-06  4576   0.116E-02
   9 F= -.99259366E+02 E0= -.99258404E+02  d E =-.288552E-02
       N       E                     dE             d eps       ncg     rms          rms(c)
DAV:   1    -0.962694903595E+02   -0.31989E-02   -0.28770E-01  4816   0.444E-01    0.292E-01
DAV:   2    -0.962689007712E+02    0.58959E-03   -0.11701E-02  5608   0.124E-01    0.158E-01
DAV:   3    -0.962688145726E+02    0.86199E-04   -0.11514E-03  6312   0.485E-02    0.895E-02
DAV:   4    -0.962689582052E+02   -0.14363E-03   -0.81211E-04  6600   0.934E-02    0.985E-02
DAV:   5    -0.962688318041E+02    0.12640E-03   -0.10122E-03  6600   0.103E-01    0.499E-02
DAV:   6    -0.962688028150E+02    0.28989E-04   -0.10685E-04  5544   0.236E-02    0.124E-02
DAV:   7    -0.962687985580E+02    0.42570E-05   -0.32325E-05  4280   0.260E-02
  10 F= -.99261644E+02 E0= -.99260668E+02  d E =-.292549E-02
       N       E                     dE             d eps       ncg     rms          rms(c)
DAV:   1    -0.962689267794E+02   -0.12396E-03   -0.53488E-01  4680   0.611E-01    0.280E-01
DAV:   2    -0.962689941420E+02   -0.67363E-04   -0.99009E-03  5816   0.112E-01    0.160E-01
DAV:   3    -0.962690078826E+02   -0.13741E-04   -0.93586E-04  6360   0.464E-02    0.841E-02
DAV:   4    -0.962691868568E+02   -0.17897E-03   -0.81900E-04  6592   0.992E-02    0.887E-02
DAV:   5    -0.962690489221E+02    0.13793E-03   -0.84993E-04  6376   0.102E-01    0.392E-02
DAV:   6    -0.962690445472E+02    0.43749E-05   -0.11775E-04  5872   0.275E-02    0.259E-02
DAV:   7    -0.962690328135E+02    0.11734E-04   -0.50110E-05  4888   0.300E-02    0.729E-03
DAV:   8    -0.962690326969E+02    0.11664E-06   -0.77890E-06  3888   0.140E-02
  11 F= -.99262053E+02 E0= -.99261091E+02  d E =-.288657E-02
       N       E                     dE             d eps       ncg     rms          rms(c)
DAV:   1    -0.962702994300E+02   -0.12666E-02   -0.25656E-01  4328   0.431E-01    0.146E-01
DAV:   2    -0.962706026578E+02   -0.30323E-03   -0.28662E-03  5936   0.693E-02    0.891E-02
DAV:   3    -0.962706950968E+02   -0.92439E-04   -0.31878E-04  6536   0.539E-02    0.594E-02
DAV:   4    -0.962707418203E+02   -0.46723E-04   -0.55147E-04  6248   0.656E-02    0.760E-02
DAV:   5    -0.962706996724E+02    0.42148E-04   -0.34123E-04  5968   0.532E-02    0.269E-02
DAV:   6    -0.962706715642E+02    0.28108E-04   -0.13274E-04  4784   0.462E-02    0.743E-03
DAV:   7    -0.962706717582E+02   -0.19396E-06   -0.50564E-06  3984   0.728E-03
  12 F= -.99263533E+02 E0= -.99262563E+02  d E =-.291057E-02
       N       E                     dE             d eps       ncg     rms          rms(c)
DAV:   1    -0.962704529336E+02    0.21863E-03   -0.51854E-01  4704   0.562E-01    0.232E-01
DAV:   2    -0.962707972453E+02   -0.34431E-03   -0.52939E-03  5984   0.102E-01    0.132E-01
DAV:   3    -0.962710100824E+02   -0.21284E-03   -0.70464E-04  6416   0.786E-02    0.869E-02
DAV:   4    -0.962711242891E+02   -0.11421E-03   -0.10228E-03  6208   0.973E-02    0.111E-01
DAV:   5    -0.962710695318E+02    0.54757E-04   -0.82341E-04  5808   0.799E-02    0.487E-02
DAV:   6    -0.962709863640E+02    0.83168E-04   -0.42912E-04  5872   0.857E-02    0.100E-02
DAV:   7    -0.962709870667E+02   -0.70274E-06   -0.19008E-05  4576   0.161E-02
  13 F= -.99263984E+02 E0= -.99263015E+02  d E =-.290584E-02
       N       E                     dE             d eps       ncg     rms          rms(c)
DAV:   1    -0.962669137850E+02    0.40726E-02   -0.27175E-01  4520   0.450E-01    0.226E-01
DAV:   2    -0.962666740265E+02    0.23976E-03   -0.67040E-03  5944   0.104E-01    0.121E-01
DAV:   3    -0.962667285433E+02   -0.54517E-04   -0.10336E-03  6344   0.738E-02    0.744E-02
DAV:   4    -0.962668122043E+02   -0.83661E-04   -0.81416E-04  6344   0.114E-01    0.828E-02
DAV:   5    -0.962667492527E+02    0.62952E-04   -0.48866E-04  6128   0.667E-02    0.445E-02
DAV:   6    -0.962667478335E+02    0.14192E-05   -0.33033E-04  5752   0.630E-02    0.316E-02
DAV:   7    -0.962667232937E+02    0.24540E-04   -0.10815E-04  5360   0.408E-02    0.548E-03
DAV:   8    -0.962667239875E+02   -0.69381E-06   -0.46987E-06  4096   0.786E-03
  14 F= -.99259756E+02 E0= -.99258793E+02  d E =-.289050E-02
       N       E                     dE             d eps       ncg     rms          rms(c)
DAV:   1    -0.962665859941E+02    0.13730E-03   -0.56227E-01  4976   0.613E-01    0.368E-01
DAV:   2    -0.962658645716E+02    0.72142E-03   -0.17644E-02  5704   0.150E-01    0.202E-01
DAV:   3    -0.962657686912E+02    0.95880E-04   -0.20041E-03  6280   0.815E-02    0.107E-01
DAV:   4    -0.962661180823E+02   -0.34939E-03   -0.21932E-03  6592   0.176E-01    0.123E-01
DAV:   5    -0.962658137529E+02    0.30433E-03   -0.21551E-03  6688   0.176E-01    0.675E-02
DAV:   6    -0.962658009627E+02    0.12790E-04   -0.35546E-04  5920   0.532E-02    0.434E-02
DAV:   7    -0.962657602017E+02    0.40761E-04   -0.15250E-04  5416   0.511E-02    0.898E-03
DAV:   8    -0.962657614593E+02   -0.12575E-05   -0.11102E-05  4824   0.106E-02
  15 F= -.99258599E+02 E0= -.99257623E+02  d E =-.292648E-02
       N       E                     dE             d eps       ncg     rms          rms(c)
DAV:   1    -0.962683346894E+02   -0.25745E-02   -0.26660E-01  4408   0.424E-01    0.160E-01
DAV:   2    -0.962685557782E+02   -0.22109E-03   -0.27632E-03  5944   0.638E-02    0.953E-02
DAV:   3    -0.962686235716E+02   -0.67793E-04   -0.24616E-04  5664   0.348E-02    0.371E-02
DAV:   4    -0.962686853163E+02   -0.61745E-04   -0.33601E-04  6224   0.779E-02    0.311E-02
DAV:   5    -0.962686441821E+02    0.41134E-04   -0.23338E-04  5256   0.628E-02    0.161E-02
DAV:   6    -0.962686439198E+02    0.26229E-06   -0.25330E-05  4632   0.124E-02
  16 F= -.99261489E+02 E0= -.99260523E+02  d E =-.289831E-02
       N       E                     dE             d eps       ncg     rms          rms(c)
DAV:   1    -0.962689935728E+02   -0.34939E-03   -0.53864E-01  4944   0.606E-01    0.286E-01
DAV:   2    -0.962688899503E+02    0.10362E-03   -0.94434E-03  5864   0.109E-01    0.163E-01
DAV:   3    -0.962689206447E+02   -0.30694E-04   -0.93663E-04  6296   0.508E-02    0.850E-02
DAV:   4    -0.962692001038E+02   -0.27946E-03   -0.11829E-03  6480   0.121E-01    0.118E-01
DAV:   5    -0.962689612781E+02    0.23883E-03   -0.10546E-03  6576   0.104E-01    0.322E-02
DAV:   6    -0.962689614344E+02   -0.15627E-06   -0.77283E-05  5384   0.339E-02
  17 F= -.99261985E+02 E0= -.99261020E+02  d E =-.289495E-02
       N       E                     dE             d eps       ncg     rms          rms(c)
DAV:   1    -0.962703814816E+02   -0.14202E-02   -0.25723E-01  4328   0.445E-01    0.142E-01
DAV:   2    -0.962707160886E+02   -0.33461E-03   -0.28649E-03  6024   0.774E-02    0.883E-02
DAV:   3    -0.962708583728E+02   -0.14228E-03   -0.60460E-04  6440   0.953E-02    0.558E-02
DAV:   4    -0.962708173797E+02    0.40993E-04   -0.72463E-04  6424   0.112E-01    0.289E-02
DAV:   5    -0.962707990293E+02    0.18350E-04   -0.13752E-04  5000   0.530E-02    0.122E-02
DAV:   6    -0.962707982810E+02    0.74824E-06   -0.23985E-05  4496   0.181E-02
  18 F= -.99263672E+02 E0= -.99262704E+02  d E =-.290305E-02
       N       E                     dE             d eps       ncg     rms          rms(c)
DAV:   1    -0.962695050559E+02    0.12940E-02   -0.52700E-01  4784   0.576E-01    0.258E-01
DAV:   2    -0.962696797187E+02   -0.17466E-03   -0.68439E-03  6016   0.105E-01    0.143E-01
DAV:   3    -0.962698257161E+02   -0.14600E-03   -0.69694E-04  6368   0.688E-02    0.755E-02
DAV:   4    -0.962701583035E+02   -0.33259E-03   -0.19316E-03  6496   0.171E-01    0.100E-01
DAV:   5    -0.962698818491E+02    0.27645E-03   -0.13459E-03  6368   0.142E-01    0.519E-02
DAV:   6    -0.962698474710E+02    0.34378E-04   -0.15584E-04  5352   0.363E-02    0.159E-02
DAV:   7    -0.962698464756E+02    0.99536E-06   -0.20110E-05  4688   0.171E-02
  19 F= -.99262833E+02 E0= -.99261856E+02  d E =-.293185E-02
       N       E                     dE             d eps       ncg     rms          rms(c)
DAV:   1    -0.962601644832E+02    0.96830E-02   -0.16966E+00  4912   0.121E+00    0.284E-01
DAV:   2    -0.962606811128E+02   -0.51663E-03   -0.18595E-02  5880   0.169E-01    0.170E-01
DAV:   3    -0.962604106594E+02    0.27045E-03   -0.17763E-03  6208   0.624E-02    0.777E-02
DAV:   4    -0.962607364017E+02   -0.32574E-03   -0.15368E-03  6576   0.889E-02    0.147E-01
DAV:   5    -0.962604612830E+02    0.27512E-03   -0.83816E-04  6352   0.641E-02    0.236E-02
DAV:   6    -0.962604572947E+02    0.39883E-05   -0.12830E-04  5216   0.439E-02    0.160E-02
DAV:   7    -0.962604567930E+02    0.50172E-06   -0.25550E-05  4808   0.209E-02
  20 F= -.99253379E+02 E0= -.99252417E+02  d E =-.288479E-02
       N       E                     dE             d eps       ncg     rms          rms(c)
DAV:   1    -0.962600291162E+02    0.42818E-03   -0.67109E+00  5120   0.237E+00    0.543E-01
DAV:   2    -0.962607490332E+02   -0.71992E-03   -0.55940E-02  6120   0.294E-01    0.317E-01
DAV:   3    -0.962591480338E+02    0.16010E-02   -0.62131E-03  6296   0.969E-02    0.134E-01
DAV:   4    -0.962598914010E+02   -0.74337E-03   -0.44202E-03  6504   0.143E-01    0.217E-01
DAV:   5    -0.962592567283E+02    0.63467E-03   -0.20884E-03  6688   0.127E-01    0.377E-02
DAV:   6    -0.962592862740E+02   -0.29546E-04   -0.28917E-04  6456   0.636E-02    0.311E-02
DAV:   7    -0.962592687933E+02    0.17481E-04   -0.16870E-04  5616   0.564E-02    0.159E-02
DAV:   8    -0.962592702357E+02   -0.14424E-05   -0.17568E-05  4088   0.203E-02
  21 F= -.99252217E+02 E0= -.99251242E+02  d E =-.292443E-02
       N       E                     dE             d eps       ncg     rms          rms(c)
DAV:   1    -0.962601079830E+02   -0.83919E-03   -0.33603E+00  4960   0.166E+00    0.386E-01
DAV:   2    -0.962607708381E+02   -0.66286E-03   -0.32852E-02  6144   0.218E-01    0.229E-01
DAV:   3    -0.962600023813E+02    0.76846E-03   -0.28709E-03  6272   0.726E-02    0.111E-01
DAV:   4    -0.962605237146E+02   -0.52133E-03   -0.30633E-03  6440   0.135E-01    0.185E-01
DAV:   5    -0.962600315224E+02    0.49219E-03   -0.15555E-03  6632   0.116E-01    0.256E-02
DAV:   6    -0.962600408122E+02   -0.92898E-05   -0.11726E-04  6080   0.338E-02    0.193E-02
DAV:   7    -0.962600382936E+02    0.25187E-05   -0.65967E-05  5288   0.345E-02
  22 F= -.99252952E+02 E0= -.99251977E+02  d E =-.292524E-02
       N       E                     dE             d eps       ncg     rms          rms(c)
DAV:   1    -0.962592641222E+02    0.77669E-03   -0.66969E+00  5112   0.235E+00    0.539E-01
DAV:   2    -0.962612198014E+02   -0.19557E-02   -0.66092E-02  6152   0.321E-01    0.325E-01
DAV:   3    -0.962596255787E+02    0.15942E-02   -0.68724E-03  6352   0.141E-01    0.154E-01
DAV:   4    -0.962602970901E+02   -0.67151E-03   -0.54400E-03  6488   0.248E-01    0.200E-01
DAV:   5    -0.962596673547E+02    0.62974E-03   -0.23256E-03  6488   0.158E-01    0.558E-02
DAV:   6    -0.962596768814E+02   -0.95267E-05   -0.62671E-04  6488   0.910E-02    0.477E-02
DAV:   7    -0.962596452625E+02    0.31619E-04   -0.24090E-04  5960   0.578E-02    0.182E-02
DAV:   8    -0.962596442041E+02    0.10584E-05   -0.23222E-05  4736   0.188E-02
  23 F= -.99252599E+02 E0= -.99251637E+02  d E =-.288599E-02
       N       E                     dE             d eps       ncg     rms          rms(c)
DAV:   1    -0.962679739120E+02   -0.83286E-02   -0.34083E+00  5120   0.174E+00    0.459E-01
DAV:   2    -0.962682891599E+02   -0.31525E-03   -0.29071E-02  6240   0.219E-01    0.308E-01
DAV:   3    -0.962676582817E+02    0.63088E-03   -0.32569E-03  6552   0.902E-02    0.120E-01
DAV:   4    -0.962681432136E+02   -0.48493E-03   -0.27337E-03  6536   0.168E-01    0.168E-01
DAV:   5    -0.962676752582E+02    0.46796E-03   -0.17745E-03  6472   0.130E-01    0.411E-02
DAV:   6    -0.962676909649E+02   -0.15707E-04   -0.12308E-04  5792   0.411E-02    0.278E-02
DAV:   7    -0.962676729957E+02    0.17969E-04   -0.12444E-04  5520   0.493E-02    0.130E-02
DAV:   8    -0.962676736612E+02   -0.66552E-06   -0.20373E-05  4392   0.207E-02
  24 F= -.99259990E+02 E0= -.99258999E+02  d E =-.297251E-02
       N       E                     dE             d eps       ncg     rms          rms(c)
DAV:   1    -0.962677472942E+02   -0.74298E-04   -0.69310E+00  5192   0.249E+00    0.873E-01
DAV:   2    -0.962662096469E+02    0.15376E-02   -0.58558E-02  6248   0.314E-01    0.528E-01
DAV:   3    -0.962657483747E+02    0.46127E-03   -0.47535E-03  6888   0.134E-01    0.252E-01
DAV:   4    -0.962690518976E+02   -0.33035E-02   -0.14015E-02  6672   0.344E-01    0.466E-01
DAV:   5    -0.962656543157E+02    0.33976E-02   -0.10249E-02  6880   0.330E-01    0.688E-02
DAV:   6    -0.962656785329E+02   -0.24217E-04   -0.49888E-04  6112   0.720E-02    0.285E-02
DAV:   7    -0.962656740282E+02    0.45047E-05   -0.21675E-04  5872   0.655E-02    0.167E-02
DAV:   8    -0.962656649625E+02    0.90656E-05   -0.60139E-05  5016   0.353E-02
  25 F= -.99259221E+02 E0= -.99258275E+02  d E =-.283689E-02
