       N       E                     dE             d eps       ncg     rms          rms(c)
DAV:   1     0.225617158235E+04    0.22562E+04   -0.93162E+04  5776   0.159E+03
DAV:   2     0.286837217379E+03   -0.19693E+04   -0.19167E+04  5688   0.455E+02
DAV:   3    -0.616209589076E+02   -0.34846E+03   -0.33954E+03  6408   0.200E+02
DAV:   4    -0.921113020870E+02   -0.30490E+02   -0.29909E+02  6728   0.554E+01
DAV:   5    -0.956895048087E+02   -0.35782E+01   -0.35469E+01  9256   0.128E+01    0.100E+02
RMM:   6    -0.899881911157E+02    0.57013E+01   -0.15450E+01  6650   0.624E+00    0.539E+01
RMM:   7    -0.934846215976E+02   -0.34964E+01   -0.12455E+01  6979   0.643E+00    0.133E+01
RMM:   8    -0.911094103511E+02    0.23752E+01   -0.34215E+00  6901   0.380E+00    0.926E+00
RMM:   9    -0.894636684059E+02    0.16457E+01   -0.17331E+00  7227   0.248E+00    0.310E+00
RMM:  10    -0.894110549291E+02    0.52613E-01   -0.36340E-01  8302   0.127E+00    0.160E+00
RMM:  11    -0.894027133730E+02    0.83416E-02   -0.26400E-01  9097   0.916E-01    0.989E-01
RMM:  12    -0.894044980181E+02   -0.17846E-02   -0.10205E-01  9344   0.578E-01    0.485E-01
RMM:  13    -0.894102125010E+02   -0.57145E-02   -0.72280E-02  9551   0.418E-01    0.350E-01
RMM:  14    -0.894125186655E+02   -0.23062E-02   -0.33398E-02  9640   0.305E-01    0.233E-01
RMM:  15    -0.894149192263E+02   -0.24006E-02   -0.24214E-02  9614   0.220E-01    0.166E-01
RMM:  16    -0.894168115798E+02   -0.18924E-02   -0.15039E-02  9767   0.164E-01    0.933E-02
RMM:  17    -0.894181850719E+02   -0.13735E-02   -0.10367E-02  9688   0.131E-01    0.350E-02
RMM:  18    -0.894193495497E+02   -0.11645E-02   -0.67711E-03  9536   0.100E-01    0.257E-02
RMM:  19    -0.894201414246E+02   -0.79187E-03   -0.43456E-03  9315   0.812E-02    0.297E-02
RMM:  20    -0.894206587594E+02   -0.51733E-03   -0.29045E-03  9179   0.650E-02    0.306E-02
RMM:  21    -0.894209992957E+02   -0.34054E-03   -0.19515E-03  8638   0.521E-02    0.342E-02
RMM:  22    -0.894212115882E+02   -0.21229E-03   -0.13386E-03  7962   0.421E-02    0.335E-02
RMM:  23    -0.894213471173E+02   -0.13553E-03   -0.89866E-04  7014   0.346E-02    0.165E-02
RMM:  24    -0.894214091211E+02   -0.62004E-04   -0.62578E-04  5979   0.284E-02    0.484E-03
RMM:  25    -0.894214570436E+02   -0.47922E-04   -0.43335E-04  5096   0.226E-02    0.644E-03
RMM:  26    -0.894214811300E+02   -0.24086E-04   -0.29555E-04  4749   0.184E-02    0.630E-03
RMM:  27    -0.894215007703E+02   -0.19640E-04   -0.20921E-04  4502   0.150E-02    0.817E-03
RMM:  28    -0.894215234444E+02   -0.22674E-04   -0.15946E-04  4387   0.133E-02    0.252E-02
RMM:  29    -0.894215345002E+02   -0.11056E-04   -0.10143E-04  4124   0.108E-02    0.165E-02
RMM:  30    -0.894215412895E+02   -0.67893E-05   -0.77358E-05  3762   0.930E-03
   1 F= -.92530592E+02 E0= -.92528639E+02  d E =-.925306E+02
       N       E                     dE             d eps       ncg     rms          rms(c)
DAV:   1    -0.314335617730E+02    0.57988E+02   -0.40263E+03  6160   0.999E+01    0.782E+01
RMM:   2    -0.591874947026E+02   -0.27754E+02   -0.37425E+02  6941   0.362E+01    0.428E+01
RMM:   3    -0.829276994232E+02   -0.23740E+02   -0.20566E+02  6941   0.191E+01    0.165E+01
RMM:   4    -0.911520655079E+02   -0.82244E+01   -0.98207E+01  7093   0.131E+01    0.182E+01
RMM:   5    -0.833101907032E+02    0.78419E+01   -0.30959E+01  8085   0.702E+00    0.900E+00
RMM:   6    -0.852051577667E+02   -0.18950E+01   -0.36171E+01  7791   0.586E+00    0.121E+01
RMM:   7    -0.832462657996E+02    0.19589E+01   -0.54250E+00  7564   0.353E+00    0.744E+00
RMM:   8    -0.835049505102E+02   -0.25868E+00   -0.74999E+00  8504   0.284E+00    0.429E+00
RMM:   9    -0.833798715380E+02    0.12508E+00   -0.22976E+00  8267   0.212E+00    0.199E+00
RMM:  10    -0.834661864819E+02   -0.86315E-01   -0.11639E+00  8448   0.160E+00    0.110E+00
RMM:  11    -0.835511465595E+02   -0.84960E-01   -0.87826E-01  8641   0.136E+00    0.461E-01
RMM:  12    -0.836253967210E+02   -0.74250E-01   -0.74292E-01  8443   0.120E+00    0.548E-01
RMM:  13    -0.836833272237E+02   -0.57931E-01   -0.58650E-01  9086   0.106E+00    0.544E-01
RMM:  14    -0.837361064381E+02   -0.52779E-01   -0.52358E-01  8183   0.980E-01    0.119E+00
RMM:  15    -0.837748266944E+02   -0.38720E-01   -0.42948E-01  8217   0.922E-01    0.419E-01
RMM:  16    -0.838114693865E+02   -0.36643E-01   -0.37652E-01  7819   0.800E-01    0.502E-01
RMM:  17    -0.838416894725E+02   -0.30220E-01   -0.30948E-01  7145   0.718E-01    0.690E-01
RMM:  18    -0.838684119381E+02   -0.26722E-01   -0.27936E-01  6951   0.659E-01    0.701E-01
RMM:  19    -0.838908423254E+02   -0.22430E-01   -0.23317E-01  6726   0.600E-01    0.769E-01
RMM:  20    -0.839106958067E+02   -0.19853E-01   -0.20992E-01  6627   0.555E-01    0.706E-01
RMM:  21    -0.839275638351E+02   -0.16868E-01   -0.17768E-01  6298   0.504E-01    0.733E-01
RMM:  22    -0.839428190974E+02   -0.15255E-01   -0.15976E-01  5735   0.460E-01    0.833E-01
RMM:  23    -0.839559910311E+02   -0.13172E-01   -0.13809E-01  5458   0.422E-01    0.926E-01
RMM:  24    -0.839677789630E+02   -0.11788E-01   -0.12382E-01  5073   0.388E-01    0.102E+00
RMM:  25    -0.839780691211E+02   -0.10290E-01   -0.10794E-01  4934   0.358E-01    0.110E+00
RMM:  26    -0.839872614453E+02   -0.91923E-02   -0.96452E-02  4616   0.331E-01    0.119E+00
RMM:  27    -0.839952755606E+02   -0.80141E-02   -0.84347E-02  4538   0.305E-01    0.127E+00
RMM:  28    -0.840024060548E+02   -0.71305E-02   -0.75078E-02  4294   0.283E-01    0.134E+00
RMM:  29    -0.840086495667E+02   -0.62435E-02   -0.65751E-02  4231   0.261E-01    0.141E+00
RMM:  30    -0.840141740340E+02   -0.55245E-02   -0.58257E-02  4014   0.242E-01    0.147E+00
RMM:  31    -0.840190065625E+02   -0.48325E-02   -0.50982E-02  3895   0.224E-01    0.153E+00
RMM:  32    -0.840232636014E+02   -0.42570E-02   -0.44940E-02  3787   0.208E-01    0.158E+00
RMM:  33    -0.840269824781E+02   -0.37189E-02   -0.39233E-02  3719   0.193E-01    0.164E+00
RMM:  34    -0.840302369304E+02   -0.32545E-02   -0.34386E-02  3629   0.179E-01    0.168E+00
RMM:  35    -0.840330725847E+02   -0.28357E-02   -0.29932E-02  3569   0.166E-01    0.173E+00
RMM:  36    -0.840355471313E+02   -0.24745E-02   -0.26146E-02  3502   0.154E-01    0.177E+00
RMM:  37    -0.840376981465E+02   -0.21510E-02   -0.22753E-02  3421   0.144E-01    0.181E+00
RMM:  38    -0.840395804727E+02   -0.18823E-02   -0.19898E-02  3352   0.133E-01    0.184E+00
RMM:  39    -0.840412191949E+02   -0.16387E-02   -0.17368E-02  3340   0.124E-01    0.188E+00
RMM:  40    -0.840426545263E+02   -0.14353E-02   -0.15212E-02  3287   0.116E-01    0.191E+00
RMM:  41    -0.840439049179E+02   -0.12504E-02   -0.13299E-02  3256   0.108E-01    0.194E+00
RMM:  42    -0.840450039686E+02   -0.10991E-02   -0.11654E-02  3165   0.100E-01    0.196E+00
RMM:  43    -0.840459620104E+02   -0.95804E-03   -0.10194E-02  3129   0.935E-02    0.199E+00
RMM:  44    -0.840468020014E+02   -0.83999E-03   -0.89326E-03  3050   0.871E-02    0.201E+00
RMM:  45    -0.840475327843E+02   -0.73078E-03   -0.78153E-03  3029   0.813E-02    0.203E+00
RMM:  46    -0.840481785844E+02   -0.64580E-03   -0.68469E-03  2887   0.758E-02    0.205E+00
RMM:  47    -0.840487956750E+02   -0.61709E-03   -0.60345E-03  3472   0.724E-02    0.207E+00
RMM:  48    -0.840492257528E+02   -0.43008E-03   -0.52417E-03  3122   0.664E-02    0.208E+00
RMM:  49    -0.840490232667E+02    0.20249E-03   -0.45731E-03  4983   0.709E-02    0.203E+00
RMM:  50    -0.840492632852E+02   -0.24002E-03   -0.39278E-03  3812   0.599E-02    0.203E+00
RMM:  51    -0.840496360647E+02   -0.37278E-03   -0.34439E-03  3047   0.536E-02    0.205E+00
RMM:  52    -0.840501148322E+02   -0.47877E-03   -0.30715E-03  4012   0.543E-02    0.209E+00
RMM:  53    -0.840502920282E+02   -0.17720E-03   -0.26411E-03  2951   0.475E-02    0.209E+00
RMM:  54    -0.840502510099E+02    0.41018E-04   -0.23222E-03  4155   0.490E-02    0.206E+00
RMM:  55    -0.840499959700E+02    0.25504E-03   -0.20248E-03  4879   0.504E-02    0.200E+00
RMM:  56    -0.840501213298E+02   -0.12536E-03   -0.17190E-03  3541   0.400E-02    0.200E+00
RMM:  57    -0.840505801536E+02   -0.45882E-03   -0.15498E-03  3506   0.371E-02    0.202E+00
RMM:  58    -0.840506191756E+02   -0.39022E-04   -0.13274E-03  3025   0.335E-02    0.203E+00
RMM:  59    -0.840507228707E+02   -0.10370E-03   -0.11804E-03  2586   0.309E-02    0.204E+00
RMM:  60    -0.840507949313E+02   -0.72061E-04   -0.10214E-03  2775   0.291E-02    0.204E+00
RMM:  61    -0.840506166432E+02    0.17829E-03   -0.91599E-04  4388   0.332E-02    0.201E+00
RMM:  62    -0.840501723067E+02    0.44434E-03   -0.10507E-03  5698   0.509E-02    0.189E+00
RMM:  63    -0.840518510762E+02   -0.16788E-02   -0.87552E-04  5556   0.478E-02    0.203E+00
RMM:  64    -0.840525536709E+02   -0.70259E-03   -0.83625E-04  4788   0.350E-02    0.207E+00
RMM:  65    -0.840526798519E+02   -0.12618E-03   -0.58618E-04  3589   0.262E-02    0.208E+00
RMM:  66    -0.840527545007E+02   -0.74649E-04   -0.57417E-04  3047   0.232E-02    0.209E+00
RMM:  67    -0.840527357117E+02    0.18789E-04   -0.51624E-04  5336   0.345E-02    0.201E+00
RMM:  68    -0.840527666695E+02   -0.30958E-04   -0.40637E-04  3594   0.216E-02    0.201E+00
RMM:  69    -0.840528805228E+02   -0.11385E-03   -0.37569E-04  3754   0.209E-02    0.200E+00
RMM:  70    -0.840525865604E+02    0.29396E-03   -0.35370E-04  4192   0.256E-02    0.194E+00
RMM:  71    -0.840519305110E+02    0.65605E-03   -0.33145E-04  4850   0.278E-02    0.187E+00
RMM:  72    -0.840511042352E+02    0.82628E-03   -0.44146E-04  5371   0.386E-02    0.174E+00
RMM:  73    -0.840512282800E+02   -0.12404E-03   -0.17309E-04  4176   0.165E-02    0.175E+00
RMM:  74    -0.840521524518E+02   -0.92417E-03   -0.27529E-04  4349   0.252E-02    0.184E+00
RMM:  75    -0.840531575275E+02   -0.10051E-02   -0.28232E-04  4993   0.280E-02    0.191E+00
RMM:  76    -0.840535270915E+02   -0.36956E-03   -0.21059E-04  4219   0.199E-02    0.194E+00
RMM:  77    -0.840527364258E+02    0.79067E-03   -0.14413E-04  3985   0.197E-02    0.187E+00
RMM:  78    -0.840530151728E+02   -0.27875E-03   -0.12267E-04  2935   0.131E-02    0.191E+00
RMM:  79    -0.840537028435E+02   -0.68767E-03   -0.17676E-04  4771   0.225E-02    0.198E+00
RMM:  80    -0.840538093695E+02   -0.10653E-03   -0.10297E-04  3266   0.134E-02    0.199E+00
RMM:  81    -0.840538156279E+02   -0.62584E-05   -0.99890E-05  3579   0.122E-02
   2 F= -.87343096E+02 E0= -.87345899E+02  d E =0.518750E+01
       N       E                     dE             d eps       ncg     rms          rms(c)
DAV:   1    -0.456143985524E+02    0.38439E+02   -0.25032E+03  7688   0.107E+02    0.344E+01
RMM:   2    -0.834152243856E+02   -0.37801E+02   -0.43703E+02  8005   0.379E+01    0.165E+01
RMM:   3    -0.102323196053E+03   -0.18908E+02   -0.13763E+02  6805   0.194E+01    0.214E+01
RMM:   4    -0.979931624007E+02    0.43300E+01   -0.40057E+01  7135   0.103E+01    0.148E+01
RMM:   5    -0.954784870130E+02    0.25147E+01   -0.14484E+01  8029   0.602E+00    0.107E+01
RMM:   6    -0.961517228348E+02   -0.67324E+00   -0.96745E+00  8696   0.396E+00    0.136E+01
RMM:   7    -0.959318650679E+02    0.21986E+00   -0.64976E+00  7938   0.318E+00    0.392E+00
RMM:   8    -0.959525478162E+02   -0.20683E-01   -0.11319E+00  8661   0.174E+00    0.374E+00
RMM:   9    -0.959624021886E+02   -0.98544E-02   -0.85644E-01  9244   0.110E+00    0.346E+00
RMM:  10    -0.960391246697E+02   -0.76722E-01   -0.52300E-01  9631   0.789E-01    0.378E+00
RMM:  11    -0.958380376442E+02    0.20109E+00   -0.95089E-01  8397   0.114E+00    0.111E+00
RMM:  12    -0.958476606696E+02   -0.96230E-02   -0.21307E-01  9251   0.616E-01    0.676E-01
RMM:  13    -0.958533692756E+02   -0.57086E-02   -0.10383E-01  9362   0.434E-01    0.479E-01
RMM:  14    -0.958600444027E+02   -0.66751E-02   -0.53001E-02  8896   0.314E-01    0.480E-01
RMM:  15    -0.958631067825E+02   -0.30624E-02   -0.40619E-02  8905   0.246E-01    0.255E-01
RMM:  16    -0.958661828516E+02   -0.30761E-02   -0.22649E-02  9013   0.211E-01    0.335E-01
RMM:  17    -0.958678075139E+02   -0.16247E-02   -0.16758E-02  8591   0.159E-01    0.243E-01
RMM:  18    -0.958688588464E+02   -0.10513E-02   -0.13024E-02  8260   0.130E-01    0.829E-02
RMM:  19    -0.958699162759E+02   -0.10574E-02   -0.75201E-03  8079   0.106E-01    0.556E-02
RMM:  20    -0.958708975526E+02   -0.98128E-03   -0.52601E-03  7672   0.828E-02    0.934E-02
RMM:  21    -0.958713661040E+02   -0.46855E-03   -0.32522E-03  7014   0.628E-02    0.108E-01
RMM:  22    -0.958716466279E+02   -0.28052E-03   -0.22382E-03  6869   0.583E-02    0.463E-02
RMM:  23    -0.958719304443E+02   -0.28382E-03   -0.17654E-03  6331   0.440E-02    0.195E-02
RMM:  24    -0.958720628393E+02   -0.13240E-03   -0.10994E-03  5823   0.351E-02    0.119E-02
RMM:  25    -0.958721413922E+02   -0.78553E-04   -0.76604E-04  5050   0.273E-02    0.139E-02
RMM:  26    -0.958721944426E+02   -0.53050E-04   -0.54017E-04  4717   0.223E-02    0.211E-02
RMM:  27    -0.958722336832E+02   -0.39241E-04   -0.36839E-04  4439   0.184E-02    0.150E-02
RMM:  28    -0.958722649120E+02   -0.31229E-04   -0.25371E-04  4512   0.160E-02    0.593E-03
RMM:  29    -0.958722826191E+02   -0.17707E-04   -0.17430E-04  3967   0.130E-02    0.481E-03
RMM:  30    -0.958722944715E+02   -0.11852E-04   -0.12466E-04  3587   0.110E-02    0.703E-03
RMM:  31    -0.958723078207E+02   -0.13349E-04   -0.86950E-05  3880   0.100E-02    0.424E-03
RMM:  32    -0.958723157523E+02   -0.79317E-05   -0.65112E-05  3292   0.842E-03
   3 F= -.99012342E+02 E0= -.99004989E+02  d E =-.648175E+01
       N       E                     dE             d eps       ncg     rms          rms(c)
DAV:   1    -0.958868772682E+02   -0.14569E-01   -0.98001E-01  6192   0.160E+00    0.387E-01
RMM:   2    -0.958890847389E+02   -0.22075E-02   -0.27305E-02  5969   0.301E-01    0.235E-01
RMM:   3    -0.958899738843E+02   -0.88915E-03   -0.42242E-03  7031   0.134E-01    0.163E-01
RMM:   4    -0.958895037178E+02    0.47017E-03   -0.13416E-03  6962   0.746E-02    0.112E-01
RMM:   5    -0.958893056131E+02    0.19810E-03   -0.33167E-04  6109   0.365E-02    0.372E-02
RMM:   6    -0.958893162959E+02   -0.10683E-04   -0.17195E-04  5515   0.218E-02    0.128E-02
RMM:   7    -0.958893226986E+02   -0.64027E-05   -0.75295E-05  4898   0.143E-02
   4 F= -.99028278E+02 E0= -.99021143E+02  d E =-.649769E+01
       N       E                     dE             d eps       ncg     rms          rms(c)
DAV:   1    -0.952794488256E+02    0.60987E+00   -0.18272E+02  5832   0.222E+01    0.832E+00
RMM:   2    -0.959142232573E+02   -0.63477E+00   -0.77139E+00  6199   0.476E+00    0.462E+00
RMM:   3    -0.961556762844E+02   -0.24145E+00   -0.12556E+00  6791   0.212E+00    0.301E+00
RMM:   4    -0.960727622726E+02    0.82914E-01   -0.27267E-01  6869   0.109E+00    0.286E+00
RMM:   5    -0.959574558946E+02    0.11531E+00   -0.16368E-01  7286   0.679E-01    0.379E-01
RMM:   6    -0.959568936825E+02    0.56221E-03   -0.34667E-02  8237   0.313E-01    0.236E-01
RMM:   7    -0.959581626203E+02   -0.12689E-02   -0.22890E-02  8213   0.186E-01    0.165E-01
RMM:   8    -0.959586436105E+02   -0.48099E-03   -0.70367E-03  7546   0.114E-01    0.100E-01
RMM:   9    -0.959592172071E+02   -0.57360E-03   -0.53749E-03  6699   0.873E-02    0.474E-02
RMM:  10    -0.959594952126E+02   -0.27801E-03   -0.25523E-03  6559   0.625E-02    0.263E-02
RMM:  11    -0.959598573129E+02   -0.36210E-03   -0.20927E-03  6157   0.495E-02    0.239E-02
RMM:  12    -0.959601073855E+02   -0.25007E-03   -0.10264E-03  5767   0.375E-02    0.134E-02
RMM:  13    -0.959602932685E+02   -0.18588E-03   -0.78609E-04  5374   0.292E-02    0.106E-02
RMM:  14    -0.959605175530E+02   -0.22428E-03   -0.45128E-04  5080   0.233E-02    0.786E-03
RMM:  15    -0.959606047316E+02   -0.87179E-04   -0.34660E-04  4589   0.179E-02    0.571E-03
RMM:  16    -0.959606876431E+02   -0.82911E-04   -0.18649E-04  4294   0.145E-02    0.372E-03
RMM:  17    -0.959607197776E+02   -0.32135E-04   -0.14620E-04  3711   0.118E-02    0.511E-03
RMM:  18    -0.959607404459E+02   -0.20668E-04   -0.86999E-05  3336   0.990E-03    0.505E-03
RMM:  19    -0.959607512083E+02   -0.10762E-04   -0.60660E-05  3211   0.856E-03    0.485E-03
RMM:  20    -0.959607595227E+02   -0.83144E-05   -0.41877E-05  3009   0.750E-03
   5 F= -.99086788E+02 E0= -.99082742E+02  d E =-.655620E+01
       N       E                     dE             d eps       ncg     rms          rms(c)
DAV:   1    -0.958482180648E+02    0.11253E+00   -0.43554E+01  5784   0.958E+00    0.409E+00
RMM:   2    -0.959653762726E+02   -0.11716E+00   -0.14818E+00  6106   0.211E+00    0.274E+00
RMM:   3    -0.960177559857E+02   -0.52380E-01   -0.23345E-01  6971   0.987E-01    0.128E+00
RMM:   4    -0.960191334009E+02   -0.13774E-02   -0.62441E-02  6834   0.560E-01    0.122E+00
RMM:   5    -0.959743739423E+02    0.44759E-01   -0.13513E-02  7000   0.284E-01    0.335E-01
RMM:   6    -0.959749459358E+02   -0.57199E-03   -0.63369E-03  7896   0.147E-01    0.174E-01
RMM:   7    -0.959753258281E+02   -0.37989E-03   -0.22569E-03  7448   0.795E-02    0.127E-01
RMM:   8    -0.959755716083E+02   -0.24578E-03   -0.12511E-03  6508   0.531E-02    0.431E-02
RMM:   9    -0.959757341681E+02   -0.16256E-03   -0.65342E-04  6097   0.348E-02    0.201E-02
RMM:  10    -0.959758990015E+02   -0.16483E-03   -0.34402E-04  5755   0.252E-02    0.867E-03
RMM:  11    -0.959759782025E+02   -0.79201E-04   -0.22298E-04  5215   0.184E-02    0.848E-03
RMM:  12    -0.959761110501E+02   -0.13285E-03   -0.15374E-04  4930   0.148E-02    0.797E-03
RMM:  13    -0.959761335755E+02   -0.22525E-04   -0.94336E-05  4189   0.107E-02    0.455E-03
RMM:  14    -0.959761697603E+02   -0.36185E-04   -0.53774E-05  3736   0.888E-03    0.232E-03
RMM:  15    -0.959761805688E+02   -0.10809E-04   -0.41633E-05  3083   0.715E-03    0.143E-03
RMM:  16    -0.959761873495E+02   -0.67807E-05   -0.22456E-05  2855   0.645E-03
   6 F= -.99107962E+02 E0= -.99102404E+02  d E =-.657737E+01
       N       E                     dE             d eps       ncg     rms          rms(c)
DAV:   1    -0.959784650626E+02   -0.22845E-02   -0.32850E+00  6248   0.293E+00    0.943E-01
RMM:   2    -0.959841746152E+02   -0.57096E-02   -0.77292E-02  5857   0.541E-01    0.647E-01
RMM:   3    -0.959883654591E+02   -0.41908E-02   -0.12407E-02  6606   0.244E-01    0.348E-01
RMM:   4    -0.959867208248E+02    0.16446E-02   -0.48150E-03  6791   0.151E-01    0.287E-01
RMM:   5    -0.959844578354E+02    0.22630E-02   -0.10158E-03  6724   0.742E-02    0.664E-02
RMM:   6    -0.959844781064E+02   -0.20271E-04   -0.43557E-04  6000   0.360E-02    0.365E-02
RMM:   7    -0.959844903701E+02   -0.12264E-04   -0.17645E-04  5411   0.223E-02    0.143E-02
RMM:   8    -0.959845013272E+02   -0.10957E-04   -0.91616E-05  4822   0.145E-02    0.628E-03
RMM:   9    -0.959845171951E+02   -0.15868E-04   -0.46774E-05  4078   0.106E-02    0.288E-03
RMM:  10    -0.959845332652E+02   -0.16070E-04   -0.29598E-05  3719   0.813E-03    0.186E-03
RMM:  11    -0.959845472511E+02   -0.13986E-04   -0.18779E-05  3450   0.674E-03    0.957E-04
RMM:  12    -0.959845582844E+02   -0.11033E-04   -0.13314E-05  2915   0.595E-03    0.861E-04
RMM:  13    -0.959845633154E+02   -0.50309E-05   -0.10200E-05  2409   0.550E-03
   7 F= -.99114678E+02 E0= -.99109541E+02  d E =-.658409E+01
       N       E                     dE             d eps       ncg     rms          rms(c)
DAV:   1    -0.961990444329E+02   -0.21449E+00   -0.36363E+01  6040   0.125E+01    0.309E+00
RMM:   2    -0.960883455136E+02    0.11070E+00   -0.12022E+00  6098   0.301E+00    0.140E+00
RMM:   3    -0.961736502972E+02   -0.85305E-01   -0.75211E-01  8040   0.188E+00    0.151E+00
RMM:   4    -0.961222216761E+02    0.51429E-01   -0.55806E-02  7727   0.644E-01    0.913E-01
RMM:   5    -0.961165195109E+02    0.57022E-02   -0.18614E-02  8524   0.284E-01    0.752E-01
RMM:   6    -0.961137708375E+02    0.27487E-02   -0.38067E-02  7747   0.225E-01    0.195E-01
RMM:   7    -0.961137151223E+02    0.55715E-04   -0.31557E-03  7858   0.111E-01    0.816E-02
RMM:   8    -0.961138481292E+02   -0.13301E-03   -0.13815E-03  6592   0.583E-02    0.583E-02
RMM:   9    -0.961139526555E+02   -0.10453E-03   -0.55535E-04  6055   0.372E-02    0.224E-02
RMM:  10    -0.961140110305E+02   -0.58375E-04   -0.31994E-04  5488   0.273E-02    0.929E-03
RMM:  11    -0.961140580219E+02   -0.46991E-04   -0.18309E-04  5097   0.185E-02    0.551E-03
RMM:  12    -0.961140995773E+02   -0.41555E-04   -0.12751E-04  4876   0.146E-02    0.241E-03
RMM:  13    -0.961141206453E+02   -0.21068E-04   -0.75649E-05  4479   0.106E-02    0.167E-03
RMM:  14    -0.961141415491E+02   -0.20904E-04   -0.50331E-05  4119   0.865E-03    0.133E-03
RMM:  15    -0.961141527924E+02   -0.11243E-04   -0.35518E-05  3201   0.706E-03    0.797E-04
RMM:  16    -0.961141604171E+02   -0.76247E-05   -0.21797E-05  2833   0.632E-03
   8 F= -.99248601E+02 E0= -.99243177E+02  d E =-.133922E+00
       N       E                     dE             d eps       ncg     rms          rms(c)
DAV:   1    -0.962959959418E+02   -0.18184E+00   -0.77416E+00  5672   0.597E+00    0.113E+00
RMM:   2    -0.962954964194E+02    0.49952E-03   -0.23074E-01  5979   0.145E+00    0.636E-01
RMM:   3    -0.963055550968E+02   -0.10059E-01   -0.13017E-01  7746   0.800E-01    0.592E-01
RMM:   4    -0.962983114242E+02    0.72437E-02   -0.11966E-02  7731   0.288E-01    0.361E-01
RMM:   5    -0.962971445585E+02    0.11669E-02   -0.28818E-03  8230   0.130E-01    0.307E-01
RMM:   6    -0.962965801965E+02    0.56436E-03   -0.88311E-03  6842   0.112E-01    0.902E-02
RMM:   7    -0.962965855092E+02   -0.53128E-05   -0.93389E-04  6724   0.539E-02    0.434E-02
RMM:   8    -0.962966050955E+02   -0.19586E-04   -0.23464E-04  5643   0.280E-02    0.320E-02
RMM:   9    -0.962966220226E+02   -0.16927E-04   -0.12314E-04  5329   0.188E-02    0.844E-03
RMM:  10    -0.962966316443E+02   -0.96217E-05   -0.59607E-05  4664   0.135E-02
   9 F= -.99428818E+02 E0= -.99423450E+02  d E =-.314140E+00
       N       E                     dE             d eps       ncg     rms          rms(c)
DAV:   1    -0.963662607212E+02   -0.69639E-01   -0.15215E+01  5752   0.927E+00    0.126E+00
RMM:   2    -0.963977522279E+02   -0.31492E-01   -0.33893E-01  6193   0.205E+00    0.686E-01
RMM:   3    -0.964248073092E+02   -0.27055E-01   -0.14114E-01  8111   0.118E+00    0.764E-01
RMM:   4    -0.964077470868E+02    0.17060E-01   -0.16780E-02  8052   0.407E-01    0.327E-01
RMM:   5    -0.964079757548E+02   -0.22867E-03   -0.32093E-03  8660   0.167E-01    0.251E-01
RMM:   6    -0.964079641833E+02    0.11571E-04   -0.13754E-03  7533   0.994E-02    0.670E-02
RMM:   7    -0.964079573670E+02    0.68163E-05   -0.58707E-04  7329   0.646E-02    0.381E-02
RMM:   8    -0.964079876924E+02   -0.30325E-04   -0.35943E-04  7025   0.406E-02    0.147E-02
RMM:   9    -0.964080171407E+02   -0.29448E-04   -0.18227E-04  6192   0.253E-02    0.167E-02
RMM:  10    -0.964080451213E+02   -0.27981E-04   -0.10084E-04  5621   0.205E-02    0.146E-02
RMM:  11    -0.964080803665E+02   -0.35245E-04   -0.69523E-05  5142   0.149E-02    0.420E-03
RMM:  12    -0.964081058167E+02   -0.25450E-04   -0.43606E-05  4513   0.104E-02    0.453E-03
RMM:  13    -0.964081301842E+02   -0.24368E-04   -0.31128E-05  4205   0.881E-03    0.258E-03
RMM:  14    -0.964081457133E+02   -0.15529E-04   -0.21418E-05  3377   0.703E-03    0.139E-03
RMM:  15    -0.964081513519E+02   -0.56387E-05   -0.11964E-05  2931   0.589E-03
  10 F= -.99542583E+02 E0= -.99536770E+02  d E =-.113765E+00
       N       E                     dE             d eps       ncg     rms          rms(c)
DAV:   1    -0.960575839973E+02    0.35056E+00   -0.14138E+02  5712   0.294E+01    0.425E+00
RMM:   2    -0.964280953745E+02   -0.37051E+00   -0.39836E+00  6138   0.652E+00    0.223E+00
RMM:   3    -0.967178051204E+02   -0.28971E+00   -0.16367E+00  7776   0.373E+00    0.225E+00
RMM:   4    -0.965596651548E+02    0.15814E+00   -0.19436E-01  8019   0.141E+00    0.123E+00
RMM:   5    -0.965609346169E+02   -0.12695E-02   -0.35042E-02  8738   0.570E-01    0.963E-01
RMM:   6    -0.965616745169E+02   -0.73990E-03   -0.18315E-02  7683   0.372E-01    0.266E-01
RMM:   7    -0.965613519701E+02    0.32255E-03   -0.65702E-03  8088   0.238E-01    0.211E-01
RMM:   8    -0.965614607282E+02   -0.10876E-03   -0.42136E-03  8427   0.149E-01    0.630E-02
RMM:   9    -0.965616450113E+02   -0.18428E-03   -0.19947E-03  7879   0.842E-02    0.791E-02
RMM:  10    -0.965617360113E+02   -0.91000E-04   -0.10888E-03  7039   0.738E-02    0.583E-02
RMM:  11    -0.965618378304E+02   -0.10182E-03   -0.66117E-04  6927   0.448E-02    0.185E-02
RMM:  12    -0.965619288350E+02   -0.91005E-04   -0.41101E-04  6529   0.324E-02    0.978E-03
RMM:  13    -0.965620331052E+02   -0.10427E-03   -0.26544E-04  5941   0.239E-02    0.107E-02
RMM:  14    -0.965621145422E+02   -0.81437E-04   -0.15852E-04  5438   0.184E-02    0.118E-02
RMM:  15    -0.965621799699E+02   -0.65428E-04   -0.13096E-04  5104   0.156E-02    0.190E-03
RMM:  16    -0.965622096576E+02   -0.29688E-04   -0.68285E-05  4364   0.117E-02    0.171E-03
RMM:  17    -0.965622239196E+02   -0.14262E-04   -0.52517E-05  3928   0.960E-03    0.172E-03
RMM:  18    -0.965622258882E+02   -0.19687E-05   -0.31332E-05  3476   0.797E-03
  11 F= -.99704418E+02 E0= -.99698507E+02  d E =-.275600E+00
       N       E                     dE             d eps       ncg     rms          rms(c)
DAV:   1    -0.966122141368E+02   -0.49990E-01   -0.67964E+00  5840   0.661E+00    0.803E-01
RMM:   2    -0.966358151561E+02   -0.23601E-01   -0.26802E-01  6467   0.155E+00    0.484E-01
RMM:   3    -0.966436999647E+02   -0.78848E-02   -0.62605E-02  8385   0.817E-01    0.432E-01
RMM:   4    -0.966423723212E+02    0.13276E-02   -0.85358E-03  8133   0.287E-01    0.289E-01
RMM:   5    -0.966421191290E+02    0.25319E-03   -0.23171E-03  8180   0.128E-01    0.155E-01
RMM:   6    -0.966421811947E+02   -0.62066E-04   -0.10332E-03  7473   0.715E-02    0.559E-02
RMM:   7    -0.966421890200E+02   -0.78253E-05   -0.39089E-04  6847   0.431E-02    0.316E-02
RMM:   8    -0.966422051058E+02   -0.16086E-04   -0.26368E-04  6290   0.297E-02    0.125E-02
RMM:   9    -0.966422255782E+02   -0.20472E-04   -0.12116E-04  5551   0.203E-02    0.577E-03
RMM:  10    -0.966422421233E+02   -0.16545E-04   -0.68573E-05  5006   0.140E-02    0.385E-03
RMM:  11    -0.966422607508E+02   -0.18628E-04   -0.39705E-05  4534   0.111E-02    0.230E-03
RMM:  12    -0.966422708464E+02   -0.10096E-04   -0.24739E-05  4125   0.877E-03    0.174E-03
RMM:  13    -0.966422869874E+02   -0.16141E-04   -0.20226E-05  3801   0.739E-03    0.113E-03
RMM:  14    -0.966422910620E+02   -0.40746E-05   -0.10320E-05  2982   0.617E-03
  12 F= -.99790075E+02 E0= -.99783786E+02  d E =-.856563E-01
       N       E                     dE             d eps       ncg     rms          rms(c)
DAV:   1    -0.966064514006E+02    0.35836E-01   -0.17597E+01  5464   0.107E+01    0.130E+00
RMM:   2    -0.966683372532E+02   -0.61886E-01   -0.69747E-01  6465   0.249E+00    0.771E-01
RMM:   3    -0.966890401498E+02   -0.20703E-01   -0.16923E-01  8438   0.136E+00    0.670E-01
RMM:   4    -0.966862622150E+02    0.27779E-02   -0.22060E-02  8093   0.462E-01    0.465E-01
RMM:   5    -0.966854808648E+02    0.78135E-03   -0.58522E-03  8469   0.209E-01    0.259E-01
RMM:   6    -0.966857056204E+02   -0.22476E-03   -0.26155E-03  8011   0.115E-01    0.992E-02
RMM:   7    -0.966857490813E+02   -0.43461E-04   -0.97652E-04  7502   0.696E-02    0.618E-02
RMM:   8    -0.966857734439E+02   -0.24363E-04   -0.62258E-04  7043   0.465E-02    0.257E-02
RMM:   9    -0.966858149987E+02   -0.41555E-04   -0.29424E-04  6324   0.315E-02    0.100E-02
RMM:  10    -0.966858510351E+02   -0.36036E-04   -0.16232E-04  5804   0.214E-02    0.581E-03
RMM:  11    -0.966858871357E+02   -0.36101E-04   -0.98402E-05  5426   0.162E-02    0.357E-03
RMM:  12    -0.966859108071E+02   -0.23671E-04   -0.58133E-05  4973   0.125E-02    0.242E-03
RMM:  13    -0.966859413240E+02   -0.30517E-04   -0.41583E-05  4443   0.998E-03    0.144E-03
RMM:  14    -0.966859487465E+02   -0.74225E-05   -0.22104E-05  3632   0.781E-03
  13 F= -.99843165E+02 E0= -.99836419E+02  d E =-.138746E+00
       N       E                     dE             d eps       ncg     rms          rms(c)
DAV:   1    -0.967032771018E+02   -0.17336E-01   -0.79444E+00  5552   0.676E+00    0.111E+00
RMM:   2    -0.967324913114E+02   -0.29214E-01   -0.39580E-01  6772   0.158E+00    0.711E-01
RMM:   3    -0.967424667824E+02   -0.99755E-02   -0.78761E-02  8124   0.781E-01    0.532E-01
RMM:   4    -0.967411349491E+02    0.13318E-02   -0.16548E-02  8340   0.324E-01    0.416E-01
RMM:   5    -0.967393972645E+02    0.17377E-02   -0.48840E-03  8179   0.160E-01    0.180E-01
RMM:   6    -0.967396374359E+02   -0.24017E-03   -0.20813E-03  7905   0.907E-02    0.651E-02
RMM:   7    -0.967396481695E+02   -0.10734E-04   -0.10852E-03  7091   0.564E-02    0.519E-02
RMM:   8    -0.967396884786E+02   -0.40309E-04   -0.37693E-04  6652   0.348E-02    0.372E-02
RMM:   9    -0.967397069640E+02   -0.18485E-04   -0.24406E-04  6220   0.256E-02    0.885E-03
RMM:  10    -0.967397251155E+02   -0.18151E-04   -0.11240E-04  5624   0.181E-02    0.510E-03
RMM:  11    -0.967397365383E+02   -0.11423E-04   -0.68391E-05  5148   0.136E-02    0.366E-03
RMM:  12    -0.967397479049E+02   -0.11367E-04   -0.42426E-05  4666   0.112E-02    0.218E-03
RMM:  13    -0.967397558134E+02   -0.79086E-05   -0.28563E-05  3908   0.938E-03
  14 F= -.99904297E+02 E0= -.99897340E+02  d E =-.611325E-01
       N       E                     dE             d eps       ncg     rms          rms(c)
DAV:   1    -0.967386538516E+02    0.10941E-02   -0.29859E-01  6120   0.130E+00    0.221E-01
RMM:   2    -0.967397596496E+02   -0.11058E-02   -0.14998E-02  6500   0.306E-01    0.138E-01
RMM:   3    -0.967401524098E+02   -0.39276E-03   -0.28961E-03  7828   0.150E-01    0.109E-01
RMM:   4    -0.967400562751E+02    0.96135E-04   -0.63536E-04  7670   0.631E-02    0.880E-02
RMM:   5    -0.967400070255E+02    0.49250E-04   -0.22970E-04  6410   0.334E-02    0.383E-02
RMM:   6    -0.967400188917E+02   -0.11866E-04   -0.99948E-05  5559   0.206E-02    0.132E-02
RMM:   7    -0.967400188853E+02    0.63847E-08   -0.63942E-05  4769   0.140E-02
  15 F= -.99906004E+02 E0= -.99899005E+02  d E =-.628388E-01
       N       E                     dE             d eps       ncg     rms          rms(c)
DAV:   1    -0.967421304240E+02   -0.21115E-02   -0.81548E+00  5840   0.647E+00    0.114E+00
RMM:   2    -0.967594814748E+02   -0.17351E-01   -0.19426E-01  6217   0.143E+00    0.722E-01
RMM:   3    -0.967741456145E+02   -0.14664E-01   -0.56429E-02  7863   0.751E-01    0.587E-01
RMM:   4    -0.967644254865E+02    0.97201E-02   -0.96061E-03  7936   0.287E-01    0.233E-01
RMM:   5    -0.967640389513E+02    0.38654E-03   -0.23230E-03  8182   0.140E-01    0.136E-01
RMM:   6    -0.967641350665E+02   -0.96115E-04   -0.11030E-03  7829   0.764E-02    0.534E-02
RMM:   7    -0.967641459949E+02   -0.10928E-04   -0.41339E-04  6880   0.449E-02    0.325E-02
RMM:   8    -0.967641710981E+02   -0.25103E-04   -0.31677E-04  6368   0.318E-02    0.208E-02
RMM:   9    -0.967641775707E+02   -0.64727E-05   -0.14317E-04  5657   0.224E-02    0.114E-02
RMM:  10    -0.967641864750E+02   -0.89042E-05   -0.73412E-05  5244   0.157E-02
  16 F= -.99932018E+02 E0= -.99924530E+02  d E =-.260149E-01
       N       E                     dE             d eps       ncg     rms          rms(c)
DAV:   1    -0.967633093313E+02    0.86824E-03   -0.64766E-01  6344   0.183E+00    0.311E-01
RMM:   2    -0.967646768611E+02   -0.13675E-02   -0.15519E-02  6159   0.400E-01    0.194E-01
RMM:   3    -0.967658000777E+02   -0.11232E-02   -0.44371E-03  7853   0.211E-01    0.167E-01
RMM:   4    -0.967650541779E+02    0.74590E-03   -0.75139E-04  7718   0.799E-02    0.683E-02
RMM:   5    -0.967650407700E+02    0.13408E-04   -0.23806E-04  7038   0.398E-02    0.374E-02
RMM:   6    -0.967650503972E+02   -0.96271E-05   -0.10600E-04  5891   0.235E-02    0.146E-02
RMM:   7    -0.967650533193E+02   -0.29221E-05   -0.52765E-05  5081   0.156E-02
  17 F= -.99933405E+02 E0= -.99925787E+02  d E =-.274019E-01
       N       E                     dE             d eps       ncg     rms          rms(c)
DAV:   1    -0.967730924103E+02   -0.80420E-02   -0.36810E+00  5912   0.458E+00    0.448E-01
RMM:   2    -0.967798232824E+02   -0.67309E-02   -0.74744E-02  6037   0.104E+00    0.193E-01
RMM:   3    -0.967841253340E+02   -0.43021E-02   -0.31539E-02  7838   0.575E-01    0.233E-01
RMM:   4    -0.967829836933E+02    0.11416E-02   -0.35728E-03  7877   0.192E-01    0.141E-01
RMM:   5    -0.967830524639E+02   -0.68771E-04   -0.72597E-04  8012   0.782E-02    0.128E-01
RMM:   6    -0.967830847270E+02   -0.32263E-04   -0.34153E-04  6705   0.459E-02    0.428E-02
RMM:   7    -0.967830996114E+02   -0.14884E-04   -0.16150E-04  5956   0.318E-02    0.520E-02
RMM:   8    -0.967831034056E+02   -0.37942E-05   -0.95582E-05  5143   0.194E-02
  18 F= -.99949989E+02 E0= -.99942397E+02  d E =-.165836E-01
       N       E                     dE             d eps       ncg     rms          rms(c)
DAV:   1    -0.967791217505E+02    0.39779E-02   -0.65088E+00  5880   0.611E+00    0.607E-01
RMM:   2    -0.967913017246E+02   -0.12180E-01   -0.13435E-01  6113   0.141E+00    0.264E-01
RMM:   3    -0.967991642671E+02   -0.78625E-02   -0.56814E-02  7893   0.770E-01    0.321E-01
RMM:   4    -0.967969252327E+02    0.22390E-02   -0.64558E-03  8009   0.258E-01    0.185E-01
RMM:   5    -0.967970563373E+02   -0.13110E-03   -0.13196E-03  8234   0.106E-01    0.168E-01
RMM:   6    -0.967971139987E+02   -0.57661E-04   -0.61363E-04  7211   0.621E-02    0.534E-02
RMM:   7    -0.967971387340E+02   -0.24735E-04   -0.29062E-04  6500   0.426E-02    0.649E-02
RMM:   8    -0.967971476084E+02   -0.88744E-05   -0.18516E-04  5734   0.262E-02    0.217E-02
RMM:   9    -0.967971561963E+02   -0.85879E-05   -0.96551E-05  5116   0.177E-02
  19 F= -.99962077E+02 E0= -.99954528E+02  d E =-.286716E-01
       N       E                     dE             d eps       ncg     rms          rms(c)
DAV:   1    -0.967161092999E+02    0.81038E-01   -0.26021E+01  5768   0.123E+01    0.125E+00
RMM:   2    -0.967675949430E+02   -0.51486E-01   -0.57148E-01  6099   0.297E+00    0.546E-01
RMM:   3    -0.968002679800E+02   -0.32673E-01   -0.24981E-01  7819   0.160E+00    0.645E-01
RMM:   4    -0.967919761961E+02    0.82918E-02   -0.28560E-02  8260   0.554E-01    0.394E-01
RMM:   5    -0.967924925088E+02   -0.51631E-03   -0.53565E-03  8451   0.216E-01    0.361E-01
RMM:   6    -0.967927395549E+02   -0.24705E-03   -0.25991E-03  7609   0.132E-01    0.114E-01
RMM:   7    -0.967928066907E+02   -0.67136E-04   -0.11541E-03  7059   0.958E-02    0.149E-01
RMM:   8    -0.967928202010E+02   -0.13510E-04   -0.73056E-04  7572   0.573E-02    0.476E-02
RMM:   9    -0.967928517118E+02   -0.31511E-04   -0.36079E-04  6328   0.329E-02    0.231E-02
RMM:  10    -0.967928717016E+02   -0.19990E-04   -0.20119E-04  5640   0.236E-02    0.212E-02
RMM:  11    -0.967928928062E+02   -0.21105E-04   -0.13087E-04  5257   0.177E-02    0.517E-03
RMM:  12    -0.967929053767E+02   -0.12571E-04   -0.87056E-05  4806   0.134E-02    0.771E-03
RMM:  13    -0.967929154403E+02   -0.10064E-04   -0.58767E-05  4168   0.103E-02    0.479E-03
RMM:  14    -0.967929211591E+02   -0.57188E-05   -0.38394E-05  3715   0.840E-03
  20 F= -.99954038E+02 E0= -.99946602E+02  d E =-.206322E-01
       N       E                     dE             d eps       ncg     rms          rms(c)
DAV:   1    -0.967646803509E+02    0.28235E-01   -0.12688E+01  5624   0.874E+00    0.869E-01
RMM:   2    -0.967895663480E+02   -0.24886E-01   -0.26583E-01  6096   0.193E+00    0.365E-01
RMM:   3    -0.968053578122E+02   -0.15791E-01   -0.11049E-01  8042   0.112E+00    0.469E-01
RMM:   4    -0.967998779645E+02    0.54798E-02   -0.11780E-02  7803   0.356E-01    0.260E-01
RMM:   5    -0.968001576442E+02   -0.27968E-03   -0.26236E-03  8397   0.152E-01    0.236E-01
RMM:   6    -0.968002641719E+02   -0.10653E-03   -0.86400E-04  7322   0.780E-02    0.780E-02
RMM:   7    -0.968003021931E+02   -0.38021E-04   -0.56425E-04  6759   0.573E-02    0.103E-01
RMM:   8    -0.968003139860E+02   -0.11793E-04   -0.22292E-04  6340   0.321E-02    0.443E-02
RMM:   9    -0.968003244292E+02   -0.10443E-04   -0.13383E-04  5399   0.204E-02    0.304E-02
RMM:  10    -0.968003294297E+02   -0.50005E-05   -0.65349E-05  4821   0.137E-02
  21 F= -.99964097E+02 E0= -.99956581E+02  d E =-.306920E-01
       N       E                     dE             d eps       ncg     rms          rms(c)
DAV:   1    -0.968068915174E+02   -0.65671E-02   -0.10205E+00  5864   0.238E+00    0.275E-01
RMM:   2    -0.968090896295E+02   -0.21981E-02   -0.25511E-02  6189   0.518E-01    0.105E-01
RMM:   3    -0.968098513771E+02   -0.76175E-03   -0.67485E-03  7804   0.271E-01    0.986E-02
RMM:   4    -0.968098436659E+02    0.77112E-05   -0.98606E-04  7618   0.950E-02    0.848E-02
RMM:   5    -0.968098335923E+02    0.10074E-04   -0.21274E-04  7284   0.414E-02    0.653E-02
RMM:   6    -0.968098514703E+02   -0.17878E-04   -0.13251E-04  6055   0.261E-02    0.283E-02
RMM:   7    -0.968098558197E+02   -0.43493E-05   -0.44049E-05  4744   0.161E-02
  22 F= -.99972415E+02 E0= -.99964906E+02  d E =-.831789E-02
       N       E                     dE             d eps       ncg     rms          rms(c)
DAV:   1    -0.968019393074E+02    0.79122E-02   -0.92128E+00  5512   0.715E+00    0.905E-01
RMM:   2    -0.968221263530E+02   -0.20187E-01   -0.23536E-01  6277   0.162E+00    0.336E-01
RMM:   3    -0.968293152894E+02   -0.71889E-02   -0.64966E-02  8204   0.841E-01    0.301E-01
RMM:   4    -0.968292138179E+02    0.10147E-03   -0.93077E-03  8168   0.301E-01    0.247E-01
RMM:   5    -0.968290835024E+02    0.13032E-03   -0.22516E-03  8291   0.132E-01    0.190E-01
RMM:   6    -0.968292129533E+02   -0.12945E-03   -0.11560E-03  7511   0.758E-02    0.748E-02
RMM:   7    -0.968292539809E+02   -0.41028E-04   -0.44946E-04  6763   0.498E-02    0.499E-02
RMM:   8    -0.968292672743E+02   -0.13293E-04   -0.24600E-04  6407   0.297E-02    0.124E-02
RMM:   9    -0.968292788928E+02   -0.11618E-04   -0.12265E-04  5690   0.199E-02    0.103E-02
RMM:  10    -0.968292868066E+02   -0.79138E-05   -0.68621E-05  5245   0.145E-02
  23 F= -.99988235E+02 E0= -.99980779E+02  d E =-.241374E-01
       N       E                     dE             d eps       ncg     rms          rms(c)
DAV:   1    -0.967130263512E+02    0.11625E+00   -0.37004E+01  5480   0.145E+01    0.191E+00
RMM:   2    -0.967961159327E+02   -0.83090E-01   -0.96623E-01  6251   0.333E+00    0.690E-01
RMM:   3    -0.968256414724E+02   -0.29526E-01   -0.28006E-01  8190   0.172E+00    0.620E-01
RMM:   4    -0.968259551399E+02   -0.31367E-03   -0.37281E-02  8123   0.604E-01    0.514E-01
RMM:   5    -0.968253464057E+02    0.60873E-03   -0.96104E-03  8593   0.276E-01    0.411E-01
RMM:   6    -0.968256500625E+02   -0.30366E-03   -0.42616E-03  8082   0.151E-01    0.143E-01
RMM:   7    -0.968258701504E+02   -0.22009E-03   -0.20143E-03  7372   0.108E-01    0.133E-01
RMM:   8    -0.968259005517E+02   -0.30401E-04   -0.99973E-04  7455   0.615E-02    0.287E-02
RMM:   9    -0.968259484381E+02   -0.47886E-04   -0.48852E-04  6671   0.387E-02    0.189E-02
RMM:  10    -0.968259829602E+02   -0.34522E-04   -0.28778E-04  6176   0.274E-02    0.220E-02
RMM:  11    -0.968260074019E+02   -0.24442E-04   -0.18597E-04  5720   0.207E-02    0.896E-03
RMM:  12    -0.968260280591E+02   -0.20657E-04   -0.11877E-04  5313   0.160E-02    0.584E-03
RMM:  13    -0.968260410745E+02   -0.13015E-04   -0.74817E-05  4701   0.127E-02    0.423E-03
RMM:  14    -0.968260516981E+02   -0.10624E-04   -0.52721E-05  4195   0.104E-02    0.246E-03
RMM:  15    -0.968260593664E+02   -0.76683E-05   -0.34680E-05  3820   0.877E-03
  24 F= -.99977852E+02 E0= -.99970573E+02  d E =-.137543E-01
       N       E                     dE             d eps       ncg     rms          rms(c)
DAV:   1    -0.967813617089E+02    0.44690E-01   -0.17615E+01  5456   0.994E+00    0.121E+00
RMM:   2    -0.968211140820E+02   -0.39752E-01   -0.46831E-01  6248   0.217E+00    0.476E-01
RMM:   3    -0.968362234761E+02   -0.15109E-01   -0.12833E-01  8323   0.117E+00    0.471E-01
RMM:   4    -0.968343277261E+02    0.18957E-02   -0.15418E-02  7969   0.384E-01    0.389E-01
RMM:   5    -0.968339713984E+02    0.35633E-03   -0.39714E-03  8525   0.173E-01    0.256E-01
RMM:   6    -0.968342711042E+02   -0.29971E-03   -0.27057E-03  7948   0.103E-01    0.820E-02
RMM:   7    -0.968342989029E+02   -0.27799E-04   -0.67417E-04  7119   0.576E-02    0.505E-02
RMM:   8    -0.968343190726E+02   -0.20170E-04   -0.44666E-04  6553   0.377E-02    0.207E-02
RMM:   9    -0.968343378208E+02   -0.18748E-04   -0.19027E-04  5940   0.242E-02    0.200E-02
RMM:  10    -0.968343511445E+02   -0.13324E-04   -0.11287E-04  5462   0.173E-02    0.127E-02
RMM:  11    -0.968343636440E+02   -0.12499E-04   -0.64949E-05  5194   0.136E-02    0.794E-03
RMM:  12    -0.968343716647E+02   -0.80207E-05   -0.42060E-05  4606   0.106E-02
  25 F= -.99991098E+02 E0= -.99983688E+02  d E =-.270006E-01
       N       E                     dE             d eps       ncg     rms          rms(c)
DAV:   1    -0.968387316686E+02   -0.43680E-02   -0.29140E+00  5760   0.384E+00    0.572E-01
RMM:   2    -0.968461440912E+02   -0.74124E-02   -0.90621E-02  6368   0.837E-01    0.234E-01
RMM:   3    -0.968477684234E+02   -0.16243E-02   -0.17632E-02  8162   0.417E-01    0.152E-01
RMM:   4    -0.968480109619E+02   -0.24254E-03   -0.28409E-03  8119   0.152E-01    0.108E-01
RMM:   5    -0.968481503906E+02   -0.13943E-03   -0.63694E-04  7833   0.659E-02    0.646E-02
RMM:   6    -0.968481021111E+02    0.48279E-04   -0.26465E-04  6773   0.354E-02    0.310E-02
RMM:   7    -0.968481102175E+02   -0.81063E-05   -0.12722E-04  6152   0.240E-02    0.929E-03
RMM:   8    -0.968481182731E+02   -0.80557E-05   -0.72801E-05  5367   0.156E-02
  26 F= -.10000237E+03 E0= -.99995036E+02  d E =-.112760E-01
       N       E                     dE             d eps       ncg     rms          rms(c)
DAV:   1    -0.968475884359E+02    0.52178E-03   -0.16082E+00  5992   0.281E+00    0.421E-01
RMM:   2    -0.968516651456E+02   -0.40767E-02   -0.50166E-02  6397   0.615E-01    0.176E-01
RMM:   3    -0.968525759165E+02   -0.91077E-03   -0.98343E-03  8196   0.309E-01    0.115E-01
RMM:   4    -0.968527586032E+02   -0.18269E-03   -0.15778E-03  7906   0.114E-01    0.775E-02
RMM:   5    -0.968527942156E+02   -0.35612E-04   -0.45171E-04  7615   0.520E-02    0.729E-02
RMM:   6    -0.968527745716E+02    0.19644E-04   -0.17536E-04  6418   0.287E-02    0.246E-02
RMM:   7    -0.968527877217E+02   -0.13150E-04   -0.10038E-04  5708   0.200E-02    0.775E-03
RMM:   8    -0.968527931493E+02   -0.54276E-05   -0.53580E-05  5027   0.137E-02
  27 F= -.10000522E+03 E0= -.99997945E+02  d E =-.141242E-01
       N       E                     dE             d eps       ncg     rms          rms(c)
DAV:   1    -0.968581875268E+02   -0.53998E-02   -0.49148E-01  5680   0.146E+00    0.271E-01
RMM:   2    -0.968602315744E+02   -0.20440E-02   -0.24166E-02  6657   0.345E-01    0.163E-01
RMM:   3    -0.968607747123E+02   -0.54314E-03   -0.35988E-03  7885   0.157E-01    0.137E-01
RMM:   4    -0.968606285154E+02    0.14620E-03   -0.66163E-04  7519   0.678E-02    0.991E-02
RMM:   5    -0.968605852476E+02    0.43268E-04   -0.24905E-04  6496   0.374E-02    0.253E-02
RMM:   6    -0.968605970522E+02   -0.11805E-04   -0.10370E-04  5813   0.219E-02    0.114E-02
RMM:   7    -0.968606013525E+02   -0.43003E-05   -0.57071E-05  4963   0.146E-02
  28 F= -.10001182E+03 E0= -.10000463E+03  d E =-.659784E-02
       N       E                     dE             d eps       ncg     rms          rms(c)
DAV:   1    -0.968510592614E+02    0.95378E-02   -0.44099E+00  5448   0.441E+00    0.815E-01
RMM:   2    -0.968701142585E+02   -0.19055E-01   -0.22376E-01  6636   0.999E-01    0.480E-01
RMM:   3    -0.968749172430E+02   -0.48030E-02   -0.33099E-02  8224   0.474E-01    0.415E-01
RMM:   4    -0.968736064210E+02    0.13108E-02   -0.62547E-03  8182   0.201E-01    0.328E-01
RMM:   5    -0.968732437626E+02    0.36266E-03   -0.22633E-03  7914   0.107E-01    0.904E-02
RMM:   6    -0.968733403879E+02   -0.96625E-04   -0.82333E-04  7286   0.600E-02    0.517E-02
RMM:   7    -0.968733420635E+02   -0.16757E-05   -0.41694E-04  6754   0.387E-02    0.223E-02
RMM:   8    -0.968733616127E+02   -0.19549E-04   -0.25254E-04  6345   0.281E-02    0.232E-02
RMM:   9    -0.968733729788E+02   -0.11366E-04   -0.11525E-04  5725   0.186E-02    0.733E-03
RMM:  10    -0.968733844444E+02   -0.11466E-04   -0.66467E-05  5118   0.137E-02    0.320E-03
RMM:  11    -0.968733964823E+02   -0.12038E-04   -0.38740E-05  4530   0.106E-02    0.210E-03
RMM:  12    -0.968734017641E+02   -0.52818E-05   -0.24997E-05  3997   0.872E-03
  29 F= -.10002102E+03 E0= -.10001407E+03  d E =-.157989E-01
       N       E                     dE             d eps       ncg     rms          rms(c)
DAV:   1    -0.968780497346E+02   -0.46533E-02   -0.12471E+00  5776   0.219E+00    0.420E-01
RMM:   2    -0.968806812528E+02   -0.26315E-02   -0.31207E-02  6552   0.448E-01    0.172E-01
RMM:   3    -0.968821884915E+02   -0.15072E-02   -0.57196E-03  8019   0.222E-01    0.203E-01
RMM:   4    -0.968811094347E+02    0.10791E-02   -0.10058E-03  7678   0.894E-02    0.809E-02
RMM:   5    -0.968811324653E+02   -0.23031E-04   -0.33934E-04  7070   0.449E-02    0.356E-02
RMM:   6    -0.968811529599E+02   -0.20495E-04   -0.14721E-04  6091   0.274E-02    0.154E-02
RMM:   7    -0.968811610536E+02   -0.80937E-05   -0.69040E-05  5160   0.168E-02
  30 F= -.10002779E+03 E0= -.10002085E+03  d E =-.677068E-02
       N       E                     dE             d eps       ncg     rms          rms(c)
DAV:   1    -0.968728244410E+02    0.83285E-02   -0.71245E+00  5440   0.520E+00    0.978E-01
RMM:   2    -0.968878816659E+02   -0.15057E-01   -0.17542E-01  6643   0.106E+00    0.407E-01
RMM:   3    -0.968961238078E+02   -0.82421E-02   -0.31868E-02  8138   0.533E-01    0.462E-01
RMM:   4    -0.968901208842E+02    0.60029E-02   -0.55405E-03  7987   0.212E-01    0.181E-01
RMM:   5    -0.968902075593E+02   -0.86675E-04   -0.16963E-03  8248   0.105E-01    0.802E-02
RMM:   6    -0.968903076562E+02   -0.10010E-03   -0.72373E-04  7212   0.576E-02    0.343E-02
RMM:   7    -0.968903436935E+02   -0.36037E-04   -0.31160E-04  6719   0.349E-02    0.226E-02
RMM:   8    -0.968903599790E+02   -0.16285E-04   -0.16274E-04  6186   0.239E-02    0.182E-02
RMM:   9    -0.968903709841E+02   -0.11005E-04   -0.92227E-05  5596   0.170E-02    0.535E-03
RMM:  10    -0.968903782450E+02   -0.72609E-05   -0.53926E-05  5077   0.125E-02
  31 F= -.10003465E+03 E0= -.10002776E+03  d E =-.136267E-01
       N       E                     dE             d eps       ncg     rms          rms(c)
DAV:   1    -0.968935617145E+02   -0.31907E-02   -0.39164E-01  6056   0.126E+00    0.212E-01
RMM:   2    -0.968943428342E+02   -0.78112E-03   -0.87912E-03  6419   0.259E-01    0.934E-02
RMM:   3    -0.968948112733E+02   -0.46844E-03   -0.18404E-03  7815   0.132E-01    0.110E-01
RMM:   4    -0.968945079640E+02    0.30331E-03   -0.29563E-04  7199   0.510E-02    0.408E-02
RMM:   5    -0.968945224375E+02   -0.14474E-04   -0.11584E-04  5938   0.268E-02    0.195E-02
RMM:   6    -0.968945284214E+02   -0.59840E-05   -0.51948E-05  4949   0.170E-02
  32 F= -.10003839E+03 E0= -.10003152E+03  d E =-.373995E-02
       N       E                     dE             d eps       ncg     rms          rms(c)
DAV:   1    -0.968941393190E+02    0.38312E-03   -0.35244E+00  5440   0.379E+00    0.618E-01
RMM:   2    -0.969011480521E+02   -0.70087E-02   -0.77264E-02  6436   0.767E-01    0.278E-01
RMM:   3    -0.969051689974E+02   -0.40209E-02   -0.16358E-02  8081   0.398E-01    0.321E-01
RMM:   4    -0.969024798750E+02    0.26891E-02   -0.24433E-03  7869   0.147E-01    0.116E-01
RMM:   5    -0.969025495800E+02   -0.69705E-04   -0.75774E-04  7981   0.710E-02    0.586E-02
RMM:   6    -0.969025873604E+02   -0.37780E-04   -0.29490E-04  6564   0.383E-02    0.227E-02
RMM:   7    -0.969026048744E+02   -0.17514E-04   -0.13804E-04  5977   0.236E-02    0.149E-02
RMM:   8    -0.969026126962E+02   -0.78219E-05   -0.73827E-05  5288   0.162E-02
  33 F= -.10004524E+03 E0= -.10003843E+03  d E =-.105928E-01
       N       E                     dE             d eps       ncg     rms          rms(c)
DAV:   1    -0.968656692976E+02    0.36936E-01   -0.14087E+01  5440   0.751E+00    0.121E+00
RMM:   2    -0.968935597546E+02   -0.27890E-01   -0.30711E-01  6521   0.153E+00    0.548E-01
RMM:   3    -0.969094606964E+02   -0.15901E-01   -0.65835E-02  8182   0.804E-01    0.634E-01
RMM:   4    -0.968986771225E+02    0.10784E-01   -0.98441E-03  7892   0.296E-01    0.225E-01
RMM:   5    -0.968989194887E+02   -0.24237E-03   -0.29408E-03  8494   0.143E-01    0.115E-01
RMM:   6    -0.968990505954E+02   -0.13111E-03   -0.10650E-03  7567   0.734E-02    0.464E-02
RMM:   7    -0.968991122457E+02   -0.61650E-04   -0.50092E-04  6917   0.442E-02    0.281E-02
RMM:   8    -0.968991393599E+02   -0.27114E-04   -0.25770E-04  6534   0.298E-02    0.128E-02
RMM:   9    -0.968991565653E+02   -0.17205E-04   -0.14642E-04  5920   0.212E-02    0.723E-03
RMM:  10    -0.968991703949E+02   -0.13830E-04   -0.90705E-05  5458   0.157E-02    0.320E-03
RMM:  11    -0.968991811746E+02   -0.10780E-04   -0.54874E-05  4904   0.120E-02    0.198E-03
RMM:  12    -0.968991882479E+02   -0.70733E-05   -0.35662E-05  4522   0.982E-03
  34 F= -.10003938E+03 E0= -.10003276E+03  d E =-.472949E-02
       N       E                     dE             d eps       ncg     rms          rms(c)
DAV:   1    -0.968844183817E+02    0.14763E-01   -0.74544E+00  5440   0.544E+00    0.967E-01
RMM:   2    -0.969010048852E+02   -0.16587E-01   -0.18130E-01  6388   0.115E+00    0.401E-01
RMM:   3    -0.969089466534E+02   -0.79418E-02   -0.37124E-02  7879   0.572E-01    0.475E-01
RMM:   4    -0.969040285011E+02    0.49182E-02   -0.48679E-03  7945   0.209E-01    0.240E-01
RMM:   5    -0.969041627259E+02   -0.13422E-03   -0.18518E-03  8142   0.102E-01    0.116E-01
RMM:   6    -0.969042361298E+02   -0.73404E-04   -0.69789E-04  7083   0.553E-02    0.368E-02
RMM:   7    -0.969042502065E+02   -0.14077E-04   -0.24972E-04  6443   0.316E-02    0.225E-02
RMM:   8    -0.969042589811E+02   -0.87746E-05   -0.14683E-04  5908   0.221E-02    0.203E-02
RMM:   9    -0.969042656460E+02   -0.66649E-05   -0.72458E-05  5143   0.151E-02
  35 F= -.10004623E+03 E0= -.10003949E+03  d E =-.115787E-01
       N       E                     dE             d eps       ncg     rms          rms(c)
DAV:   1    -0.969084704572E+02   -0.42115E-02   -0.10249E+00  5696   0.205E+00    0.303E-01
RMM:   2    -0.969101631769E+02   -0.16927E-02   -0.19098E-02  6011   0.414E-01    0.149E-01
RMM:   3    -0.969113692312E+02   -0.12061E-02   -0.53058E-03  7720   0.227E-01    0.175E-01
RMM:   4    -0.969106723089E+02    0.69692E-03   -0.70911E-04  7081   0.772E-02    0.709E-02
RMM:   5    -0.969106999766E+02   -0.27668E-04   -0.16074E-04  6576   0.349E-02    0.469E-02
RMM:   6    -0.969107072371E+02   -0.72605E-05   -0.78650E-05  5252   0.205E-02
  36 F= -.10005212E+03 E0= -.10004542E+03  d E =-.589230E-02
       N       E                     dE             d eps       ncg     rms          rms(c)
DAV:   1    -0.969080639739E+02    0.26360E-02   -0.38806E+00  5536   0.396E+00    0.579E-01
RMM:   2    -0.969145002837E+02   -0.64363E-02   -0.72722E-02  6246   0.807E-01    0.287E-01
RMM:   3    -0.969187769228E+02   -0.42766E-02   -0.20175E-02  8015   0.441E-01    0.321E-01
RMM:   4    -0.969164583165E+02    0.23186E-02   -0.28531E-03  7709   0.152E-01    0.135E-01
RMM:   5    -0.969165256445E+02   -0.67328E-04   -0.67124E-04  7713   0.685E-02    0.920E-02
RMM:   6    -0.969165498353E+02   -0.24191E-04   -0.37927E-04  6380   0.397E-02    0.244E-02
RMM:   7    -0.969165594776E+02   -0.96423E-05   -0.13616E-04  5632   0.235E-02    0.137E-02
RMM:   8    -0.969165666423E+02   -0.71647E-05   -0.81732E-05  5068   0.162E-02
  37 F= -.10005693E+03 E0= -.10005038E+03  d E =-.107041E-01
       N       E                     dE             d eps       ncg     rms          rms(c)
DAV:   1    -0.969196596866E+02   -0.31002E-02   -0.44381E-01  6192   0.135E+00    0.194E-01
RMM:   2    -0.969203149206E+02   -0.65523E-03   -0.74894E-03  5847   0.272E-01    0.112E-01
RMM:   3    -0.969206163707E+02   -0.30145E-03   -0.23587E-03  7288   0.152E-01    0.565E-02
RMM:   4    -0.969206528792E+02   -0.36508E-04   -0.32551E-04  6890   0.500E-02    0.612E-02
RMM:   5    -0.969206041546E+02    0.48725E-04   -0.83599E-05  5388   0.239E-02    0.302E-02
RMM:   6    -0.969206140837E+02   -0.99292E-05   -0.46443E-05  4475   0.153E-02
  38 F= -.10006052E+03 E0= -.10005399E+03  d E =-.358957E-02
       N       E                     dE             d eps       ncg     rms          rms(c)
DAV:   1    -0.969207410370E+02   -0.13688E-03   -0.39921E+00  5488   0.405E+00    0.563E-01
RMM:   2    -0.969267776917E+02   -0.60367E-02   -0.66526E-02  5969   0.818E-01    0.328E-01
RMM:   3    -0.969289909667E+02   -0.22133E-02   -0.21026E-02  7740   0.452E-01    0.145E-01
RMM:   4    -0.969295690168E+02   -0.57805E-03   -0.23938E-03  7876   0.143E-01    0.161E-01
RMM:   5    -0.969291639136E+02    0.40510E-03   -0.57846E-04  7463   0.619E-02    0.893E-02
RMM:   6    -0.969292122913E+02   -0.48378E-04   -0.26312E-04  6319   0.357E-02    0.277E-02
RMM:   7    -0.969292162894E+02   -0.39981E-05   -0.11351E-04  5362   0.228E-02    0.130E-02
RMM:   8    -0.969292260687E+02   -0.97794E-05   -0.74351E-05  4762   0.154E-02
  39 F= -.10006775E+03 E0= -.10006124E+03  d E =-.108180E-01
       N       E                     dE             d eps       ncg     rms          rms(c)
DAV:   1    -0.968968296641E+02    0.32387E-01   -0.15981E+01  5504   0.806E+00    0.108E+00
RMM:   2    -0.969214770113E+02   -0.24647E-01   -0.27040E-01  5980   0.166E+00    0.626E-01
RMM:   3    -0.969304764442E+02   -0.89994E-02   -0.87088E-02  7915   0.926E-01    0.294E-01
RMM:   4    -0.969325339266E+02   -0.20575E-02   -0.97340E-03  8054   0.293E-01    0.326E-01
RMM:   5    -0.969310191783E+02    0.15147E-02   -0.21788E-03  8042   0.125E-01    0.191E-01
RMM:   6    -0.969311996431E+02   -0.18046E-03   -0.10078E-03  7472   0.726E-02    0.595E-02
RMM:   7    -0.969312090819E+02   -0.94387E-05   -0.40779E-04  6577   0.443E-02    0.280E-02
RMM:   8    -0.969312440439E+02   -0.34962E-04   -0.27865E-04  5676   0.299E-02    0.121E-02
RMM:   9    -0.969312635765E+02   -0.19533E-04   -0.16457E-04  5143   0.203E-02    0.124E-02
RMM:  10    -0.969312774018E+02   -0.13825E-04   -0.91823E-05  4681   0.155E-02    0.796E-03
RMM:  11    -0.969312941768E+02   -0.16775E-04   -0.66143E-05  4624   0.120E-02    0.679E-03
RMM:  12    -0.969313021490E+02   -0.79722E-05   -0.42641E-05  4260   0.953E-03
  40 F= -.10006699E+03 E0= -.10006053E+03  d E =-.100611E-01
       N       E                     dE             d eps       ncg     rms          rms(c)
DAV:   1    -0.969224311471E+02    0.88630E-02   -0.44989E+00  5512   0.426E+00    0.620E-01
RMM:   2    -0.969297589905E+02   -0.73278E-02   -0.81856E-02  5943   0.883E-01    0.330E-01
RMM:   3    -0.969324632218E+02   -0.27042E-02   -0.25115E-02  7830   0.496E-01    0.196E-01
RMM:   4    -0.969332065900E+02   -0.74337E-03   -0.27852E-03  7654   0.151E-01    0.208E-01
RMM:   5    -0.969326021968E+02    0.60439E-03   -0.62999E-04  7621   0.671E-02    0.105E-01
RMM:   6    -0.969326706123E+02   -0.68415E-04   -0.38526E-04  6445   0.382E-02    0.295E-02
RMM:   7    -0.969326715338E+02   -0.92147E-06   -0.11179E-04  5233   0.232E-02    0.155E-02
RMM:   8    -0.969326759074E+02   -0.43736E-05   -0.71988E-05  4652   0.151E-02
  41 F= -.10006988E+03 E0= -.10006341E+03  d E =-.129526E-01
       N       E                     dE             d eps       ncg     rms          rms(c)
DAV:   1    -0.969337544960E+02   -0.10830E-02   -0.14840E+00  5736   0.287E+00    0.314E-01
RMM:   2    -0.969366314499E+02   -0.28770E-02   -0.33479E-02  6168   0.637E-01    0.153E-01
RMM:   3    -0.969379283927E+02   -0.12969E-02   -0.11512E-02  7778   0.349E-01    0.107E-01
RMM:   4    -0.969378866416E+02    0.41751E-04   -0.12701E-03  7640   0.113E-01    0.989E-02
RMM:   5    -0.969378526734E+02    0.33968E-04   -0.26731E-04  7373   0.467E-02    0.754E-02
RMM:   6    -0.969378810393E+02   -0.28366E-04   -0.15794E-04  5725   0.280E-02    0.306E-02
RMM:   7    -0.969378810003E+02    0.38995E-07   -0.63161E-05  5177   0.189E-02
  42 F= -.10007333E+03 E0= -.10006696E+03  d E =-.344838E-02
       N       E                     dE             d eps       ncg     rms          rms(c)
DAV:   1    -0.969380929898E+02   -0.21195E-03   -0.30907E-02  6344   0.419E-01    0.458E-02
RMM:   2    -0.969381576719E+02   -0.64682E-04   -0.74653E-04  5950   0.948E-02    0.221E-02
RMM:   3    -0.969381968335E+02   -0.39162E-04   -0.26174E-04  7057   0.528E-02    0.220E-02
RMM:   4    -0.969381866766E+02    0.10157E-04   -0.44791E-05  4814   0.206E-02    0.143E-02
RMM:   5    -0.969381869582E+02   -0.28161E-06   -0.12572E-05  3517   0.118E-02
  43 F= -.10007338E+03 E0= -.10006705E+03  d E =-.350110E-02
       N       E                     dE             d eps       ncg     rms          rms(c)
DAV:   1    -0.969375378263E+02    0.64885E-03   -0.17069E+00  5456   0.329E+00    0.326E-01
RMM:   2    -0.969425047110E+02   -0.49669E-02   -0.56524E-02  6319   0.756E-01    0.169E-01
RMM:   3    -0.969440244181E+02   -0.15197E-02   -0.14101E-02  8097   0.394E-01    0.132E-01
RMM:   4    -0.969441554342E+02   -0.13102E-03   -0.17405E-03  7942   0.134E-01    0.114E-01
RMM:   5    -0.969440411537E+02    0.11428E-03   -0.46511E-04  7740   0.602E-02    0.738E-02
RMM:   6    -0.969440733876E+02   -0.32234E-04   -0.21653E-04  6445   0.337E-02    0.286E-02
RMM:   7    -0.969440817149E+02   -0.83272E-05   -0.94198E-05  5732   0.218E-02
  44 F= -.10007652E+03 E0= -.10007034E+03  d E =-.313241E-02
       N       E                     dE             d eps       ncg     rms          rms(c)
DAV:   1    -0.969443987083E+02   -0.32532E-03   -0.43466E-02  6136   0.528E-01    0.529E-02
RMM:   2    -0.969445362883E+02   -0.13758E-03   -0.15620E-03  6187   0.124E-01    0.270E-02
RMM:   3    -0.969445899145E+02   -0.53626E-04   -0.40129E-04  7488   0.652E-02    0.278E-02
RMM:   4    -0.969445822253E+02    0.76892E-05   -0.77328E-05  5897   0.256E-02
  45 F= -.10007658E+03 E0= -.10007046E+03  d E =-.319525E-02
       N       E                     dE             d eps       ncg     rms          rms(c)
DAV:   1    -0.969455630451E+02   -0.97313E-03   -0.12199E+00  5456   0.275E+00    0.296E-01
RMM:   2    -0.969494881740E+02   -0.39251E-02   -0.45286E-02  6385   0.631E-01    0.146E-01
RMM:   3    -0.969505261021E+02   -0.10379E-02   -0.98103E-03  8053   0.321E-01    0.111E-01
RMM:   4    -0.969507423776E+02   -0.21628E-03   -0.13318E-03  7903   0.113E-01    0.105E-01
RMM:   5    -0.969505938867E+02    0.14849E-03   -0.37058E-04  7438   0.512E-02    0.645E-02
RMM:   6    -0.969506221655E+02   -0.28279E-04   -0.18712E-04  6196   0.296E-02    0.232E-02
RMM:   7    -0.969506332066E+02   -0.11041E-04   -0.78142E-05  5488   0.193E-02    0.148E-02
RMM:   8    -0.969506362800E+02   -0.30734E-05   -0.46472E-05  4960   0.138E-02
  46 F= -.10007999E+03 E0= -.10007400E+03  d E =-.340907E-02
       N       E                     dE             d eps       ncg     rms          rms(c)
DAV:   1    -0.969470681185E+02    0.35651E-02   -0.23290E+00  5440   0.380E+00    0.410E-01
RMM:   2    -0.969545764585E+02   -0.75083E-02   -0.86648E-02  6424   0.875E-01    0.198E-01
RMM:   3    -0.969565354245E+02   -0.19590E-02   -0.18705E-02  8169   0.442E-01    0.150E-01
RMM:   4    -0.969569531071E+02   -0.41768E-03   -0.24897E-03  8179   0.157E-01    0.140E-01
RMM:   5    -0.969566714773E+02    0.28163E-03   -0.69786E-04  7841   0.697E-02    0.867E-02
RMM:   6    -0.969567153189E+02   -0.43842E-04   -0.31960E-04  6710   0.395E-02    0.327E-02
RMM:   7    -0.969567364293E+02   -0.21110E-04   -0.14782E-04  6078   0.260E-02    0.210E-02
RMM:   8    -0.969567417141E+02   -0.52848E-05   -0.84307E-05  5542   0.180E-02
  47 F= -.10008247E+03 E0= -.10007669E+03  d E =-.589204E-02
       N       E                     dE             d eps       ncg     rms          rms(c)
DAV:   1    -0.969567002071E+02    0.36222E-04   -0.45385E-01  5616   0.168E+00    0.177E-01
RMM:   2    -0.969581828272E+02   -0.14826E-02   -0.17084E-02  6334   0.387E-01    0.873E-02
RMM:   3    -0.969585872678E+02   -0.40444E-03   -0.37061E-03  7952   0.196E-01    0.705E-02
RMM:   4    -0.969586441041E+02   -0.56836E-04   -0.53228E-04  7608   0.702E-02    0.657E-02
RMM:   5    -0.969586015869E+02    0.42517E-04   -0.15973E-04  6550   0.326E-02    0.396E-02
RMM:   6    -0.969586152317E+02   -0.13645E-04   -0.86617E-05  5635   0.208E-02    0.144E-02
RMM:   7    -0.969586217650E+02   -0.65334E-05   -0.41304E-05  4760   0.138E-02
  48 F= -.10008276E+03 E0= -.10007706E+03  d E =-.617954E-02
       N       E                     dE             d eps       ncg     rms          rms(c)
DAV:   1    -0.969599933539E+02   -0.13781E-02   -0.57554E-01  5456   0.180E+00    0.206E-01
RMM:   2    -0.969618338771E+02   -0.18405E-02   -0.21251E-02  6391   0.407E-01    0.103E-01
RMM:   3    -0.969623166874E+02   -0.48281E-03   -0.47646E-03  8033   0.209E-01    0.738E-02
RMM:   4    -0.969624365831E+02   -0.11990E-03   -0.66793E-04  7509   0.740E-02    0.696E-02
RMM:   5    -0.969623771393E+02    0.59444E-04   -0.15675E-04  6806   0.346E-02    0.380E-02
RMM:   6    -0.969623862476E+02   -0.91083E-05   -0.85847E-05  5565   0.203E-02
  49 F= -.10008472E+03 E0= -.10007916E+03  d E =-.196103E-02
       N       E                     dE             d eps       ncg     rms          rms(c)
DAV:   1    -0.969544328636E+02    0.79443E-02   -0.34613E+00  5440   0.441E+00    0.509E-01
RMM:   2    -0.969654018564E+02   -0.10969E-01   -0.12649E-01  6480   0.986E-01    0.250E-01
RMM:   3    -0.969683027571E+02   -0.29009E-02   -0.28339E-02  8330   0.515E-01    0.184E-01
RMM:   4    -0.969690327629E+02   -0.73001E-03   -0.40012E-03  7985   0.178E-01    0.190E-01
RMM:   5    -0.969685768107E+02    0.45595E-03   -0.87060E-04  7960   0.818E-02    0.935E-02
RMM:   6    -0.969686355467E+02   -0.58736E-04   -0.44899E-04  7065   0.466E-02    0.270E-02
RMM:   7    -0.969686555406E+02   -0.19994E-04   -0.19384E-04  6252   0.281E-02    0.174E-02
RMM:   8    -0.969686640549E+02   -0.85143E-05   -0.10912E-04  5530   0.194E-02    0.917E-03
RMM:   9    -0.969686702677E+02   -0.62128E-05   -0.53262E-05  5066   0.134E-02
  50 F= -.10008660E+03 E0= -.10008137E+03  d E =-.384533E-02
       N       E                     dE             d eps       ncg     rms          rms(c)
DAV:   1    -0.969691506139E+02   -0.48656E-03   -0.94055E-01  5632   0.208E+00    0.275E-01
RMM:   2    -0.969711778273E+02   -0.20272E-02   -0.24341E-02  6288   0.438E-01    0.108E-01
RMM:   3    -0.969718290761E+02   -0.65125E-03   -0.62572E-03  8077   0.233E-01    0.806E-02
RMM:   4    -0.969718959664E+02   -0.66890E-04   -0.81515E-04  7398   0.784E-02    0.873E-02
RMM:   5    -0.969718633105E+02    0.32656E-04   -0.19475E-04  6693   0.381E-02    0.531E-02
RMM:   6    -0.969718722550E+02   -0.89445E-05   -0.11988E-04  5638   0.231E-02    0.181E-02
RMM:   7    -0.969718794776E+02   -0.72226E-05   -0.56254E-05  4700   0.154E-02
  51 F= -.10008792E+03 E0= -.10008279E+03  d E =-.131909E-02
       N       E                     dE             d eps       ncg     rms          rms(c)
DAV:   1    -0.969722820973E+02   -0.40984E-03   -0.11431E-01  6104   0.725E-01    0.934E-02
RMM:   2    -0.969725357568E+02   -0.25366E-03   -0.30545E-03  6172   0.154E-01    0.371E-02
RMM:   3    -0.969726139650E+02   -0.78208E-04   -0.79402E-04  7330   0.819E-02    0.272E-02
RMM:   4    -0.969726273114E+02   -0.13346E-04   -0.11191E-04  6003   0.301E-02    0.299E-02
RMM:   5    -0.969726244076E+02    0.29038E-05   -0.33301E-05  4527   0.153E-02
  52 F= -.10008801E+03 E0= -.10008293E+03  d E =-.140747E-02
       N       E                     dE             d eps       ncg     rms          rms(c)
DAV:   1    -0.969732759979E+02   -0.64869E-03   -0.28576E-01  5752   0.110E+00    0.149E-01
RMM:   2    -0.969737097491E+02   -0.43375E-03   -0.56007E-03  6039   0.224E-01    0.606E-02
RMM:   3    -0.969738947056E+02   -0.18496E-03   -0.18671E-03  7652   0.125E-01    0.446E-02
RMM:   4    -0.969738999921E+02   -0.52864E-05   -0.21871E-04  6540   0.409E-02    0.459E-02
RMM:   5    -0.969738964026E+02    0.35895E-05   -0.54403E-05  4994   0.201E-02
  53 F= -.10008856E+03 E0= -.10008351E+03  d E =-.545334E-03
       N       E                     dE             d eps       ncg     rms          rms(c)
DAV:   1    -0.969739598259E+02   -0.59834E-04   -0.17536E-03  7064   0.940E-02    0.257E-02
RMM:   2    -0.969739605351E+02   -0.70912E-06   -0.48905E-05  4467   0.220E-02
  54 F= -.10008856E+03 E0= -.10008352E+03  d E =-.552573E-03
       N       E                     dE             d eps       ncg     rms          rms(c)
DAV:   1    -0.969743523481E+02   -0.39252E-03   -0.11518E-01  5640   0.789E-01    0.738E-02
RMM:   2    -0.969746176499E+02   -0.26530E-03   -0.26515E-03  6072   0.178E-01    0.476E-02
RMM:   3    -0.969747275441E+02   -0.10989E-03   -0.10120E-03  7454   0.980E-02    0.413E-02
RMM:   4    -0.969746967921E+02    0.30752E-04   -0.11071E-04  6214   0.326E-02    0.266E-02
RMM:   5    -0.969746988919E+02   -0.20998E-05   -0.31006E-05  4229   0.164E-02
  55 F= -.10008907E+03 E0= -.10008403E+03  d E =-.509786E-03
       N       E                     dE             d eps       ncg     rms          rms(c)
DAV:   1    -0.969731563122E+02    0.15405E-02   -0.10339E+00  5512   0.237E+00    0.230E-01
RMM:   2    -0.969753211500E+02   -0.21648E-02   -0.23293E-02  6157   0.524E-01    0.114E-01
RMM:   3    -0.969764123902E+02   -0.10912E-02   -0.90601E-03  8052   0.304E-01    0.108E-01
RMM:   4    -0.969762703980E+02    0.14199E-03   -0.87784E-04  7456   0.921E-02    0.803E-02
RMM:   5    -0.969762784474E+02   -0.80493E-05   -0.21515E-04  7279   0.429E-02    0.621E-02
RMM:   6    -0.969762875493E+02   -0.91019E-05   -0.11186E-04  5604   0.253E-02    0.420E-02
RMM:   7    -0.969762903545E+02   -0.28052E-05   -0.42124E-05  4684   0.161E-02
  56 F= -.10008999E+03 E0= -.10008501E+03  d E =-.142481E-02
       N       E                     dE             d eps       ncg     rms          rms(c)
DAV:   1    -0.969640316634E+02    0.12256E-01   -0.41411E+00  5512   0.475E+00    0.447E-01
RMM:   2    -0.969727987502E+02   -0.87671E-02   -0.94156E-02  6212   0.105E+00    0.223E-01
RMM:   3    -0.969771117494E+02   -0.43130E-02   -0.36331E-02  8105   0.609E-01    0.210E-01
RMM:   4    -0.969766212581E+02    0.49049E-03   -0.34691E-03  7734   0.184E-01    0.161E-01
RMM:   5    -0.969766460357E+02   -0.24778E-04   -0.85959E-04  8191   0.852E-02    0.126E-01
RMM:   6    -0.969766742825E+02   -0.28247E-04   -0.39540E-04  6874   0.485E-02    0.849E-02
RMM:   7    -0.969766891499E+02   -0.14867E-04   -0.16282E-04  5908   0.315E-02    0.550E-02
RMM:   8    -0.969766933643E+02   -0.42144E-05   -0.95638E-05  5371   0.200E-02
  57 F= -.10008908E+03 E0= -.10008425E+03  d E =-.516332E-03
       N       E                     dE             d eps       ncg     rms          rms(c)
DAV:   1    -0.969691228928E+02    0.75663E-02   -0.24104E+00  5512   0.360E+00    0.363E-01
RMM:   2    -0.969743202583E+02   -0.51974E-02   -0.55873E-02  6150   0.823E-01    0.178E-01
RMM:   3    -0.969768324871E+02   -0.25122E-02   -0.22730E-02  7850   0.461E-01    0.157E-01
RMM:   4    -0.969766977479E+02    0.13474E-03   -0.20469E-03  7517   0.143E-01    0.123E-01
RMM:   5    -0.969766900360E+02    0.77119E-05   -0.53505E-04  7777   0.687E-02    0.104E-01
RMM:   6    -0.969767011071E+02   -0.11071E-04   -0.17750E-04  6394   0.356E-02    0.488E-02
RMM:   7    -0.969767101664E+02   -0.90593E-05   -0.89268E-05  5775   0.261E-02
  58 F= -.10009009E+03 E0= -.10008516E+03  d E =-.153033E-02
       N       E                     dE             d eps       ncg     rms          rms(c)
DAV:   1    -0.969764799978E+02    0.22111E-03   -0.32081E-01  6256   0.131E+00    0.105E-01
RMM:   2    -0.969770842967E+02   -0.60430E-03   -0.62951E-03  5891   0.294E-01    0.523E-02
RMM:   3    -0.969773812491E+02   -0.29695E-03   -0.29034E-03  7340   0.168E-01    0.457E-02
RMM:   4    -0.969773899230E+02   -0.86739E-05   -0.24362E-04  6558   0.490E-02    0.456E-02
RMM:   5    -0.969773880676E+02    0.18554E-05   -0.60945E-05  5336   0.248E-02
  59 F= -.10009045E+03 E0= -.10008554E+03  d E =-.353364E-03
       N       E                     dE             d eps       ncg     rms          rms(c)
DAV:   1    -0.969773483641E+02    0.41559E-04   -0.26960E-03  6312   0.124E-01    0.185E-02
RMM:   2    -0.969773555310E+02   -0.71669E-05   -0.61527E-05  4904   0.281E-02
  60 F= -.10009045E+03 E0= -.10008556E+03  d E =-.350726E-03
       N       E                     dE             d eps       ncg     rms          rms(c)
DAV:   1    -0.969773788557E+02   -0.30492E-04   -0.14788E-03  6208   0.101E-01    0.229E-02
RMM:   2    -0.969773917556E+02   -0.12900E-04   -0.45829E-05  4901   0.245E-02    0.197E-02
RMM:   3    -0.969773831128E+02    0.86428E-05   -0.16147E-05  3333   0.137E-02
  61 F= -.10009045E+03 E0= -.10008552E+03  d E =-.355942E-03
       N       E                     dE             d eps       ncg     rms          rms(c)
DAV:   1    -0.969775890151E+02   -0.19726E-03   -0.11192E-01  6472   0.762E-01    0.664E-02
RMM:   2    -0.969777854868E+02   -0.19647E-03   -0.20178E-03  5843   0.173E-01    0.304E-02
RMM:   3    -0.969778925103E+02   -0.10702E-03   -0.10324E-03  7054   0.984E-02    0.250E-02
RMM:   4    -0.969778956012E+02   -0.30909E-05   -0.90773E-05  5710   0.291E-02
  62 F= -.10009077E+03 E0= -.10008589E+03  d E =-.319020E-03
       N       E                     dE             d eps       ncg     rms          rms(c)
DAV:   1    -0.969779786482E+02   -0.86138E-04   -0.81038E-03  6712   0.207E-01    0.177E-02
RMM:   2    -0.969779949563E+02   -0.16308E-04   -0.16236E-04  5483   0.486E-02    0.127E-02
RMM:   3    -0.969780055283E+02   -0.10572E-04   -0.85923E-05  4420   0.287E-02    0.176E-02
RMM:   4    -0.969780038693E+02    0.16590E-05   -0.12705E-05  3124   0.132E-02
  63 F= -.10009083E+03 E0= -.10008592E+03  d E =-.376207E-03
