       N       E                     dE             d eps       ncg     rms          rms(c)
DAV:   1     0.234130013508E+04    0.23413E+04   -0.93722E+04  5768   0.161E+03
DAV:   2     0.310755752234E+03   -0.20305E+04   -0.19752E+04  5776   0.464E+02
DAV:   3    -0.540574584902E+02   -0.36481E+03   -0.35285E+03  6336   0.204E+02
DAV:   4    -0.927411905133E+02   -0.38684E+02   -0.37489E+02  7056   0.576E+01
DAV:   5    -0.958437434876E+02   -0.31026E+01   -0.30770E+01  8584   0.123E+01    0.122E+02
RMM:   6    -0.100172038760E+03   -0.43283E+01   -0.26951E+01  6251   0.834E+00    0.438E+01
RMM:   7    -0.169990121769E+03   -0.69818E+02   -0.59377E+01  6775   0.119E+01    0.785E+01
RMM:   8    -0.916528878612E+02    0.78337E+02   -0.10138E+01  6365   0.847E+00    0.379E+01
RMM:   9    -0.852598585641E+02    0.63930E+01   -0.10924E+01  7079   0.511E+00    0.109E+01
RMM:  10    -0.849981467883E+02    0.26171E+00   -0.19251E+00  8708   0.234E+00    0.777E+00
RMM:  11    -0.850247261496E+02   -0.26579E-01   -0.69222E-01  9383   0.123E+00    0.640E+00
RMM:  12    -0.852329156124E+02   -0.20819E+00   -0.56144E-01  7339   0.154E+00    0.663E+00
RMM:  13    -0.849775331240E+02    0.25538E+00   -0.29965E-01  8885   0.109E+00    0.400E+00
RMM:  14    -0.849172000070E+02    0.60333E-01   -0.10472E-01  8880   0.590E-01    0.211E+00
RMM:  15    -0.849240350086E+02   -0.68350E-02   -0.66854E-02  9641   0.350E-01    0.203E+00
RMM:  16    -0.849225721855E+02    0.14628E-02   -0.53078E-02  8969   0.324E-01    0.157E+00
RMM:  17    -0.849500561016E+02   -0.27484E-01   -0.97467E-02  8829   0.432E-01    0.267E+00
RMM:  18    -0.849459217151E+02    0.41344E-02   -0.32245E-02  9536   0.276E-01    0.266E+00
RMM:  19    -0.849462673672E+02   -0.34565E-03   -0.26098E-02  9748   0.179E-01    0.276E+00
RMM:  20    -0.849477145021E+02   -0.14471E-02   -0.14705E-02  9189   0.136E-01    0.280E+00
RMM:  21    -0.849427844814E+02    0.49300E-02   -0.94408E-03  8510   0.116E-01    0.275E+00
RMM:  22    -0.849408855784E+02    0.18989E-02   -0.14408E-02  8355   0.196E-01    0.338E+00
RMM:  23    -0.849399755187E+02    0.91006E-03   -0.48170E-03  8243   0.970E-02    0.321E+00
RMM:  24    -0.849393266055E+02    0.64891E-03   -0.42069E-03  7128   0.785E-02    0.301E+00
RMM:  25    -0.849284742463E+02    0.10852E-01   -0.67223E-03  9113   0.164E-01    0.186E+00
RMM:  26    -0.849241076397E+02    0.43666E-02   -0.16667E-02  9783   0.261E-01    0.715E-01
RMM:  27    -0.849245255964E+02   -0.41796E-03   -0.17120E-02  9719   0.198E-01    0.675E-01
RMM:  28    -0.849251557520E+02   -0.63016E-03   -0.27137E-03  7053   0.983E-02    0.445E-01
RMM:  29    -0.849264117130E+02   -0.12560E-02   -0.14956E-02  9771   0.225E-01    0.107E+00
RMM:  30    -0.849250532408E+02    0.13585E-02   -0.18381E-03  6397   0.813E-02    0.726E-01
RMM:  31    -0.849239992113E+02    0.10540E-02   -0.21328E-03  7284   0.862E-02    0.202E-01
RMM:  32    -0.849243094725E+02   -0.31026E-03   -0.89973E-04  5894   0.398E-02    0.188E-01
RMM:  33    -0.849246506980E+02   -0.34123E-03   -0.60682E-04  5504   0.328E-02    0.252E-01
RMM:  34    -0.849251986903E+02   -0.54799E-03   -0.11891E-03  5893   0.413E-02    0.305E-01
RMM:  35    -0.849252374057E+02   -0.38715E-04   -0.43700E-04  5364   0.279E-02    0.254E-01
RMM:  36    -0.849251587551E+02    0.78651E-04   -0.52826E-04  5583   0.268E-02    0.188E-01
RMM:  37    -0.849251107663E+02    0.47989E-04   -0.47823E-04  5754   0.289E-02    0.103E-01
RMM:  38    -0.849251460613E+02   -0.35295E-04   -0.59666E-04  5650   0.260E-02    0.529E-02
RMM:  39    -0.849251812905E+02   -0.35229E-04   -0.26674E-04  4502   0.153E-02    0.395E-02
RMM:  40    -0.849252283138E+02   -0.47023E-04   -0.28304E-04  3800   0.113E-02    0.408E-02
RMM:  41    -0.849252730971E+02   -0.44783E-04   -0.22748E-04  3377   0.110E-02    0.266E-02
RMM:  42    -0.849253111782E+02   -0.38081E-04   -0.25041E-04  4357   0.141E-02    0.308E-02
RMM:  43    -0.849253417967E+02   -0.30618E-04   -0.20961E-04  3341   0.110E-02    0.359E-02
RMM:  44    -0.849253598158E+02   -0.18019E-04   -0.17673E-04  2523   0.934E-03    0.320E-02
RMM:  45    -0.849253739127E+02   -0.14097E-04   -0.17681E-04  2113   0.858E-03    0.246E-02
RMM:  46    -0.849253845058E+02   -0.10593E-04   -0.14358E-04  2011   0.803E-03    0.224E-02
RMM:  47    -0.849253957823E+02   -0.11277E-04   -0.15757E-04  2530   0.855E-03    0.107E-02
RMM:  48    -0.849254053706E+02   -0.95883E-05   -0.12427E-04  2761   0.814E-03    0.701E-03
RMM:  49    -0.849254164383E+02   -0.11068E-04   -0.13386E-04  1968   0.713E-03    0.798E-03
RMM:  50    -0.849254249105E+02   -0.84722E-05   -0.10785E-04  1713   0.661E-03    0.973E-03
RMM:  51    -0.849254339872E+02   -0.90767E-05   -0.11337E-04  1689   0.654E-03    0.116E-02
RMM:  52    -0.849254415111E+02   -0.75239E-05   -0.96012E-05  1772   0.643E-03
   1 F= -.88024632E+02 E0= -.88015609E+02  d E =-.880246E+02
       N       E                     dE             d eps       ncg     rms          rms(c)
DAV:   1    -0.225850791469E+02    0.62340E+02   -0.52910E+03  6304   0.166E+02    0.938E+01
RMM:   2    -0.732778730936E+02   -0.50693E+02   -0.62341E+02  7212   0.553E+01    0.541E+01
RMM:   3    -0.144016906441E+03   -0.70739E+02   -0.22979E+02  6440   0.274E+01    0.563E+01
RMM:   4    -0.754497495905E+02    0.68567E+02   -0.87352E+01  6976   0.180E+01    0.246E+01
RMM:   5    -0.696688903889E+02    0.57809E+01   -0.37199E+01  7151   0.105E+01    0.111E+01
RMM:   6    -0.706695508580E+02   -0.10007E+01   -0.20008E+01  7707   0.648E+00    0.155E+01
RMM:   7    -0.698296449346E+02    0.83991E+00   -0.11879E+01  8433   0.452E+00    0.564E+00
RMM:   8    -0.705463043324E+02   -0.71666E+00   -0.90281E+00  8548   0.344E+00    0.557E+00
RMM:   9    -0.708625859760E+02   -0.31628E+00   -0.51317E+00  8028   0.283E+00    0.466E+00
RMM:  10    -0.711982404103E+02   -0.33565E+00   -0.44623E+00  8436   0.251E+00    0.230E+00
RMM:  11    -0.715978983327E+02   -0.39966E+00   -0.41019E+00  9363   0.209E+00    0.139E+00
RMM:  12    -0.720546649643E+02   -0.45677E+00   -0.42277E+00  9562   0.186E+00    0.196E+00
RMM:  13    -0.726181555294E+02   -0.56349E+00   -0.43920E+00  9034   0.176E+00    0.373E+00
RMM:  14    -0.731550206293E+02   -0.53687E+00   -0.43261E+00  9154   0.165E+00    0.513E+00
RMM:  15    -0.731957775738E+02   -0.40757E-01   -0.30014E+00  7966   0.149E+00    0.404E+00
RMM:  16    -0.731829555812E+02    0.12822E-01   -0.19116E+00  7896   0.139E+00    0.253E+00
RMM:  17    -0.733477952938E+02   -0.16484E+00   -0.16270E+00  9094   0.107E+00    0.296E+00
RMM:  18    -0.735521736125E+02   -0.20438E+00   -0.15591E+00  8578   0.958E-01    0.399E+00
RMM:  19    -0.736906194102E+02   -0.13845E+00   -0.12330E+00  8174   0.859E-01    0.461E+00
RMM:  20    -0.737948424259E+02   -0.10422E+00   -0.10067E+00  7297   0.761E-01    0.513E+00
RMM:  21    -0.738985756632E+02   -0.10373E+00   -0.83336E-01  7098   0.699E-01    0.574E+00
RMM:  22    -0.739825015404E+02   -0.83926E-01   -0.75266E-01  7229   0.641E-01    0.632E+00
RMM:  23    -0.739755220681E+02    0.69795E-02   -0.55025E-01  7872   0.589E-01    0.639E+00
RMM:  24    -0.738330317772E+02    0.14249E+00   -0.36866E-01  8325   0.541E-01    0.549E+00
RMM:  25    -0.738557572833E+02   -0.22726E-01   -0.30710E-01  6555   0.432E-01    0.567E+00
RMM:  26    -0.738303368239E+02    0.25420E-01   -0.23241E-01  6792   0.399E-01    0.545E+00
RMM:  27    -0.738471156455E+02   -0.16779E-01   -0.20275E-01  5895   0.340E-01    0.559E+00
RMM:  28    -0.738623266636E+02   -0.15211E-01   -0.17915E-01  5689   0.305E-01    0.574E+00
RMM:  29    -0.738678206344E+02   -0.54940E-02   -0.14812E-01  5651   0.276E-01    0.583E+00
RMM:  30    -0.738809139529E+02   -0.13093E-01   -0.13717E-01  5568   0.252E-01    0.598E+00
RMM:  31    -0.738306147164E+02    0.50299E-01   -0.97565E-02  5958   0.247E-01    0.557E+00
RMM:  32    -0.738623069099E+02   -0.31692E-01   -0.96436E-02  6398   0.238E-01    0.590E+00
RMM:  33    -0.738841097699E+02   -0.21803E-01   -0.92973E-02  8636   0.296E-01    0.622E+00
RMM:  34    -0.738787874021E+02    0.53224E-02   -0.81646E-02  6159   0.211E-01    0.623E+00
RMM:  35    -0.738819522550E+02   -0.31649E-02   -0.63571E-02  5808   0.182E-01    0.629E+00
RMM:  36    -0.738240371598E+02    0.57915E-01   -0.46557E-02  6561   0.196E-01    0.571E+00
RMM:  37    -0.738428123447E+02   -0.18775E-01   -0.40142E-02  6376   0.158E-01    0.581E+00
RMM:  38    -0.738244232487E+02    0.18389E-01   -0.32068E-02  6187   0.150E-01    0.557E+00
RMM:  39    -0.738324253476E+02   -0.80021E-02   -0.31506E-02  5460   0.124E-01    0.564E+00
RMM:  40    -0.738373989392E+02   -0.49736E-02   -0.28121E-02  5351   0.109E-01    0.569E+00
RMM:  41    -0.738416365543E+02   -0.42376E-02   -0.24631E-02  5175   0.992E-02    0.575E+00
RMM:  42    -0.738396502082E+02    0.19863E-02   -0.21542E-02  4973   0.898E-02    0.574E+00
RMM:  43    -0.738405806933E+02   -0.93049E-03   -0.18800E-02  4710   0.820E-02    0.575E+00
RMM:  44    -0.738407318147E+02   -0.15112E-03   -0.16626E-02  5126   0.788E-02    0.577E+00
RMM:  45    -0.738326790900E+02    0.80527E-02   -0.14413E-02  5444   0.793E-02    0.569E+00
RMM:  46    -0.738322847491E+02    0.39434E-03   -0.12697E-02  5502   0.742E-02    0.567E+00
RMM:  47    -0.738177345683E+02    0.14550E-01   -0.10760E-02  5698   0.832E-02    0.544E+00
RMM:  48    -0.738176559958E+02    0.78573E-04   -0.96762E-03  5193   0.643E-02    0.538E+00
RMM:  49    -0.738232390886E+02   -0.55831E-02   -0.83666E-03  5403   0.609E-02    0.545E+00
RMM:  50    -0.738247052282E+02   -0.14661E-02   -0.75518E-03  5330   0.564E-02    0.548E+00
RMM:  51    -0.738322083509E+02   -0.75031E-02   -0.67516E-03  5110   0.525E-02    0.558E+00
RMM:  52    -0.738280919180E+02    0.41164E-02   -0.59348E-03  4782   0.463E-02    0.554E+00
RMM:  53    -0.738316436356E+02   -0.35517E-02   -0.54380E-03  4393   0.429E-02    0.559E+00
RMM:  54    -0.738370892154E+02   -0.54456E-02   -0.50758E-03  5263   0.473E-02    0.569E+00
RMM:  55    -0.738330629430E+02    0.40263E-02   -0.43769E-03  4628   0.379E-02    0.565E+00
RMM:  56    -0.738350569480E+02   -0.19940E-02   -0.40269E-03  3392   0.335E-02    0.567E+00
RMM:  57    -0.738500665169E+02   -0.15010E-01   -0.42815E-03  5234   0.447E-02    0.586E+00
RMM:  58    -0.738482870220E+02    0.17795E-02   -0.38187E-03  4526   0.348E-02    0.589E+00
RMM:  59    -0.738393714936E+02    0.89155E-02   -0.31343E-03  4849   0.348E-02    0.578E+00
RMM:  60    -0.738128152841E+02    0.26556E-01   -0.32636E-03  5649   0.679E-02    0.539E+00
RMM:  61    -0.737862361335E+02    0.26579E-01   -0.49326E-03  6343   0.937E-02    0.485E+00
RMM:  62    -0.737605093067E+02    0.25727E-01   -0.89878E-03  7149   0.137E-01    0.414E+00
RMM:  63    -0.737240268675E+02    0.36482E-01   -0.22060E-02  7610   0.199E-01    0.290E+00
RMM:  64    -0.737339971392E+02   -0.99703E-02   -0.15414E-02  5993   0.106E-01    0.268E+00
RMM:  65    -0.737349638140E+02   -0.96667E-03   -0.11232E-02  5810   0.782E-02    0.248E+00
RMM:  66    -0.737302292056E+02    0.47346E-02   -0.12294E-02  5825   0.901E-02    0.211E+00
RMM:  67    -0.737184880395E+02    0.11741E-01   -0.22013E-02  7204   0.172E-01    0.111E+00
RMM:  68    -0.737240413937E+02   -0.55534E-02   -0.19694E-02  5960   0.113E-01    0.798E-01
RMM:  69    -0.737274581794E+02   -0.34168E-02   -0.15609E-02  5712   0.725E-02    0.694E-01
RMM:  70    -0.737297144536E+02   -0.22563E-02   -0.80544E-03  5521   0.517E-02    0.746E-01
RMM:  71    -0.737306906310E+02   -0.97618E-03   -0.77115E-03  5202   0.398E-02    0.733E-01
RMM:  72    -0.737301717102E+02    0.51892E-03   -0.72624E-03  5650   0.565E-02    0.524E-01
RMM:  73    -0.737312850516E+02   -0.11133E-02   -0.66658E-03  5477   0.430E-02    0.453E-01
RMM:  74    -0.737317403963E+02   -0.45534E-03   -0.43801E-03  5618   0.416E-02    0.363E-01
RMM:  75    -0.737322133099E+02   -0.47291E-03   -0.45258E-03  5599   0.416E-02    0.266E-01
RMM:  76    -0.737325914745E+02   -0.37816E-03   -0.34498E-03  5598   0.411E-02    0.171E-01
RMM:  77    -0.737330174848E+02   -0.42601E-03   -0.33055E-03  5575   0.395E-02    0.864E-02
RMM:  78    -0.737333824191E+02   -0.36493E-03   -0.25045E-03  5258   0.308E-02    0.438E-02
RMM:  79    -0.737336316379E+02   -0.24922E-03   -0.21065E-03  4774   0.231E-02    0.289E-02
RMM:  80    -0.737338082390E+02   -0.17660E-03   -0.15926E-03  4481   0.187E-02    0.266E-02
RMM:  81    -0.737339528351E+02   -0.14460E-03   -0.13613E-03  4213   0.162E-02    0.228E-02
RMM:  82    -0.737340602793E+02   -0.10744E-03   -0.10408E-03  3794   0.141E-02    0.229E-02
RMM:  83    -0.737341506333E+02   -0.90354E-04   -0.89987E-04  3703   0.130E-02    0.209E-02
RMM:  84    -0.737342215671E+02   -0.70934E-04   -0.70382E-04  3377   0.117E-02    0.204E-02
RMM:  85    -0.737342627821E+02   -0.41215E-04   -0.50444E-04  3503   0.105E-02    0.132E-02
RMM:  86    -0.737342776145E+02   -0.14832E-04   -0.28282E-04  2911   0.914E-03    0.132E-02
RMM:  87    -0.737342856246E+02   -0.80101E-05   -0.19170E-04  2783   0.841E-03    0.172E-02
RMM:  88    -0.737342963628E+02   -0.10738E-04   -0.18065E-04  2553   0.776E-03    0.207E-02
RMM:  89    -0.737343110265E+02   -0.14664E-04   -0.19395E-04  2434   0.715E-03    0.229E-02
RMM:  90    -0.737343245631E+02   -0.13537E-04   -0.17164E-04  2791   0.717E-03    0.176E-02
RMM:  91    -0.737343384881E+02   -0.13925E-04   -0.16038E-04  2497   0.655E-03    0.159E-02
RMM:  92    -0.737343505515E+02   -0.12063E-04   -0.12793E-04  3040   0.717E-03    0.480E-03
RMM:  93    -0.737343625031E+02   -0.11952E-04   -0.11555E-04  2481   0.609E-03    0.256E-03
RMM:  94    -0.737343733726E+02   -0.10869E-04   -0.10772E-04  2171   0.558E-03    0.262E-03
RMM:  95    -0.737343822637E+02   -0.88911E-05   -0.92361E-05  2111   0.539E-03
   2 F= -.76970850E+02 E0= -.76964076E+02  d E =0.110538E+02
       N       E                     dE             d eps       ncg     rms          rms(c)
DAV:   1    -0.737279652895E+02    0.64081E-02   -0.69323E+02  6248   0.493E+01    0.202E+01
RMM:   2    -0.790280493349E+02   -0.53001E+01   -0.59308E+01  6428   0.164E+01    0.109E+01
RMM:   3    -0.885229649085E+02   -0.94949E+01   -0.12186E+01  6996   0.673E+00    0.221E+01
RMM:   4    -0.807380873245E+02    0.77849E+01   -0.60286E+00  7264   0.407E+00    0.859E+00
RMM:   5    -0.805572532283E+02    0.18083E+00   -0.13222E+00  7616   0.190E+00    0.830E+00
RMM:   6    -0.801662645928E+02    0.39099E+00   -0.65605E-01  9079   0.118E+00    0.473E+00
RMM:   7    -0.800962406505E+02    0.70024E-01   -0.38337E-01  7303   0.101E+00    0.293E+00
RMM:   8    -0.801175558990E+02   -0.21315E-01   -0.10798E-01  8368   0.584E-01    0.234E+00
RMM:   9    -0.801000430044E+02    0.17513E-01   -0.71230E-02  8090   0.422E-01    0.115E+00
RMM:  10    -0.801010295468E+02   -0.98654E-03   -0.56709E-02  9043   0.331E-01    0.862E-01
RMM:  11    -0.800983101905E+02    0.27194E-02   -0.18509E-02  7619   0.232E-01    0.608E-01
RMM:  12    -0.800980877429E+02    0.22245E-03   -0.18797E-02  8588   0.187E-01    0.120E-01
RMM:  13    -0.800993710788E+02   -0.12833E-02   -0.10440E-02  8360   0.122E-01    0.138E-01
RMM:  14    -0.800997882252E+02   -0.41715E-03   -0.49537E-03  7149   0.846E-02    0.371E-02
RMM:  15    -0.801001890136E+02   -0.40079E-03   -0.33010E-03  6917   0.646E-02    0.376E-02
RMM:  16    -0.801004708508E+02   -0.28184E-03   -0.23018E-03  6502   0.497E-02    0.352E-02
RMM:  17    -0.801006933220E+02   -0.22247E-03   -0.15651E-03  6169   0.404E-02    0.332E-02
RMM:  18    -0.801008428476E+02   -0.14953E-03   -0.11313E-03  5884   0.317E-02    0.742E-03
RMM:  19    -0.801009799209E+02   -0.13707E-03   -0.77519E-04  5581   0.257E-02    0.644E-03
RMM:  20    -0.801010708696E+02   -0.90949E-04   -0.57533E-04  5039   0.206E-02    0.593E-03
RMM:  21    -0.801011216063E+02   -0.50737E-04   -0.39943E-04  4522   0.168E-02    0.451E-03
RMM:  22    -0.801011622959E+02   -0.40690E-04   -0.30078E-04  4130   0.140E-02    0.428E-03
RMM:  23    -0.801011914391E+02   -0.29143E-04   -0.21054E-04  3811   0.118E-02    0.378E-03
RMM:  24    -0.801012154841E+02   -0.24045E-04   -0.15927E-04  3654   0.102E-02    0.162E-03
RMM:  25    -0.801012282374E+02   -0.12753E-04   -0.11511E-04  3317   0.874E-03    0.159E-03
RMM:  26    -0.801012388201E+02   -0.10583E-04   -0.87607E-05  3148   0.774E-03    0.821E-04
RMM:  27    -0.801012452306E+02   -0.64104E-05   -0.64329E-05  2913   0.704E-03
   3 F= -.83298200E+02 E0= -.83295625E+02  d E =0.472643E+01
       N       E                     dE             d eps       ncg     rms          rms(c)
DAV:   1    -0.816617316153E+02   -0.15605E+01   -0.28048E+02  6624   0.322E+01    0.118E+01
RMM:   2    -0.831170889793E+02   -0.14554E+01   -0.16414E+01  6424   0.861E+00    0.455E+00
RMM:   3    -0.850615314117E+02   -0.19444E+01   -0.47547E+00  7379   0.405E+00    0.114E+01
RMM:   4    -0.834433402524E+02    0.16182E+01   -0.70729E-01  7775   0.181E+00    0.291E+00
RMM:   5    -0.835057116809E+02   -0.62371E-01   -0.29671E-01  8295   0.926E-01    0.300E+00
RMM:   6    -0.834887407674E+02    0.16971E-01   -0.18036E-01  8487   0.630E-01    0.252E+00
RMM:   7    -0.834465479648E+02    0.42193E-01   -0.11071E-01  7998   0.514E-01    0.156E+00
RMM:   8    -0.834359784484E+02    0.10570E-01   -0.37044E-02  8861   0.341E-01    0.112E+00
RMM:   9    -0.834328683904E+02    0.31101E-02   -0.15330E-02  8319   0.215E-01    0.333E-01
RMM:  10    -0.834337384146E+02   -0.87002E-03   -0.14564E-02  8753   0.176E-01    0.383E-01
RMM:  11    -0.834335391796E+02    0.19924E-03   -0.38529E-03  8351   0.113E-01    0.137E-01
RMM:  12    -0.834338369418E+02   -0.29776E-03   -0.32632E-03  8572   0.820E-02    0.899E-02
RMM:  13    -0.834340201216E+02   -0.18318E-03   -0.15028E-03  7829   0.552E-02    0.879E-02
RMM:  14    -0.834341230538E+02   -0.10293E-03   -0.88323E-04  7163   0.418E-02    0.339E-02
RMM:  15    -0.834342565530E+02   -0.13350E-03   -0.60495E-04  6443   0.336E-02    0.758E-03
RMM:  16    -0.834343298063E+02   -0.73253E-04   -0.37698E-04  5881   0.258E-02    0.937E-03
RMM:  17    -0.834344275681E+02   -0.97762E-04   -0.24799E-04  5560   0.208E-02    0.121E-02
RMM:  18    -0.834344806527E+02   -0.53085E-04   -0.17143E-04  5039   0.163E-02    0.222E-03
RMM:  19    -0.834345108344E+02   -0.30182E-04   -0.10479E-04  4614   0.131E-02    0.290E-03
RMM:  20    -0.834345272593E+02   -0.16425E-04   -0.73978E-05  4215   0.108E-02    0.518E-03
RMM:  21    -0.834345391688E+02   -0.11910E-04   -0.49177E-05  3830   0.911E-03    0.228E-03
RMM:  22    -0.834345454572E+02   -0.62884E-05   -0.33665E-05  3488   0.774E-03
   4 F= -.86594030E+02 E0= -.86593219E+02  d E =0.143060E+01
       N       E                     dE             d eps       ncg     rms          rms(c)
DAV:   1    -0.792677644497E+02    0.41668E+01   -0.10561E+03  5880   0.634E+01    0.239E+01
RMM:   2    -0.869856631212E+02   -0.77179E+01   -0.87713E+01  6190   0.186E+01    0.766E+00
RMM:   3    -0.906859641874E+02   -0.37003E+01   -0.24028E+01  7067   0.847E+00    0.128E+01
RMM:   4    -0.894025853388E+02    0.12834E+01   -0.39734E+00  7591   0.347E+00    0.790E+00
RMM:   5    -0.894377087668E+02   -0.35123E-01   -0.94320E-01  8596   0.170E+00    0.664E+00
RMM:   6    -0.894206788322E+02    0.17030E-01   -0.63270E-01  7278   0.127E+00    0.464E+00
RMM:   7    -0.893797295459E+02    0.40949E-01   -0.97617E-01  7906   0.173E+00    0.579E+00
RMM:   8    -0.892669324194E+02    0.11280E+00   -0.12713E-01  7575   0.754E-01    0.407E+00
RMM:   9    -0.892503368476E+02    0.16596E-01   -0.31570E-01  7662   0.747E-01    0.116E+00
RMM:  10    -0.892464558069E+02    0.38810E-02   -0.76862E-02  8193   0.459E-01    0.103E+00
RMM:  11    -0.892433327227E+02    0.31231E-02   -0.32110E-02  9247   0.246E-01    0.870E-01
RMM:  12    -0.892402059197E+02    0.31268E-02   -0.15307E-02  8807   0.184E-01    0.551E-01
RMM:  13    -0.892399629298E+02    0.24299E-03   -0.13599E-02  8780   0.150E-01    0.239E-01
RMM:  14    -0.892406615765E+02   -0.69865E-03   -0.64692E-03  8343   0.101E-01    0.140E-01
RMM:  15    -0.892412249372E+02   -0.56336E-03   -0.35256E-03  8005   0.786E-02    0.484E-02
RMM:  16    -0.892416195826E+02   -0.39465E-03   -0.22956E-03  7478   0.599E-02    0.331E-02
RMM:  17    -0.892420304922E+02   -0.41091E-03   -0.13356E-03  7033   0.468E-02    0.498E-02
RMM:  18    -0.892422161345E+02   -0.18564E-03   -0.91825E-04  6372   0.350E-02    0.305E-02
RMM:  19    -0.892423683940E+02   -0.15226E-03   -0.53498E-04  5923   0.278E-02    0.142E-02
RMM:  20    -0.892424589611E+02   -0.90567E-04   -0.38913E-04  5253   0.219E-02    0.138E-02
RMM:  21    -0.892425224214E+02   -0.63460E-04   -0.24355E-04  4827   0.179E-02    0.123E-02
RMM:  22    -0.892425552566E+02   -0.32835E-04   -0.17029E-04  4375   0.147E-02    0.102E-02
RMM:  23    -0.892425780454E+02   -0.22789E-04   -0.11677E-04  4239   0.126E-02    0.343E-03
RMM:  24    -0.892425897339E+02   -0.11688E-04   -0.83519E-05  3741   0.105E-02    0.254E-03
RMM:  25    -0.892425960926E+02   -0.63588E-05   -0.56288E-05  3502   0.896E-03
   5 F= -.92354377E+02 E0= -.92348771E+02  d E =-.432975E+01
       N       E                     dE             d eps       ncg     rms          rms(c)
DAV:   1    -0.889931114098E+02    0.24948E+00   -0.32329E+02  5920   0.312E+01    0.251E+01
RMM:   2    -0.916454130549E+02   -0.26523E+01   -0.15606E+01  6091   0.739E+00    0.103E+01
RMM:   3    -0.997706807094E+02   -0.81253E+01   -0.10855E+01  6552   0.521E+00    0.200E+01
RMM:   4    -0.910134027601E+02    0.87573E+01   -0.15008E+00  6196   0.273E+00    0.970E+00
RMM:   5    -0.907677398966E+02    0.24566E+00   -0.92098E-01  6808   0.146E+00    0.550E+00
RMM:   6    -0.905512364372E+02    0.21650E+00   -0.24366E-01  6851   0.901E-01    0.170E+00
RMM:   7    -0.905399025139E+02    0.11334E-01   -0.12398E-01  7241   0.618E-01    0.146E+00
RMM:   8    -0.905375421250E+02    0.23604E-02   -0.31344E-02  8132   0.342E-01    0.906E-01
RMM:   9    -0.905485983888E+02   -0.11056E-01   -0.36407E-02  7614   0.251E-01    0.986E-01
RMM:  10    -0.905390806293E+02    0.95178E-02   -0.12058E-02  7345   0.184E-01    0.520E-01
RMM:  11    -0.905389194820E+02    0.16115E-03   -0.77230E-03  7638   0.129E-01    0.216E-01
RMM:  12    -0.905392160387E+02   -0.29656E-03   -0.39847E-03  7095   0.798E-02    0.159E-01
RMM:  13    -0.905395320257E+02   -0.31599E-03   -0.19036E-03  5990   0.574E-02    0.992E-02
RMM:  14    -0.905398268604E+02   -0.29483E-03   -0.14036E-03  5813   0.467E-02    0.577E-02
RMM:  15    -0.905399680736E+02   -0.14121E-03   -0.88120E-04  5609   0.352E-02    0.327E-02
RMM:  16    -0.905400819634E+02   -0.11389E-03   -0.54830E-04  5451   0.272E-02    0.276E-02
RMM:  17    -0.905401791275E+02   -0.97164E-04   -0.38282E-04  5235   0.215E-02    0.217E-02
RMM:  18    -0.905402730707E+02   -0.93943E-04   -0.24279E-04  4849   0.174E-02    0.125E-02
RMM:  19    -0.905403209846E+02   -0.47914E-04   -0.18109E-04  4201   0.140E-02    0.417E-03
RMM:  20    -0.905403509783E+02   -0.29994E-04   -0.11177E-04  3755   0.114E-02    0.441E-03
RMM:  21    -0.905403674417E+02   -0.16463E-04   -0.79399E-05  3313   0.953E-03    0.215E-03
RMM:  22    -0.905403770695E+02   -0.96278E-05   -0.53030E-05  3102   0.837E-03
   6 F= -.93643836E+02 E0= -.93636406E+02  d E =-.561920E+01
       N       E                     dE             d eps       ncg     rms          rms(c)
DAV:   1    -0.905206404314E+02    0.19727E-01   -0.13846E+01  5728   0.612E+00    0.698E+00
RMM:   2    -0.909123244820E+02   -0.39168E+00   -0.77982E-01  6265   0.140E+00    0.438E+00
RMM:   3    -0.915193802735E+02   -0.60706E+00   -0.50068E-01  6158   0.116E+00    0.819E+00
RMM:   4    -0.906330679124E+02    0.88631E+00   -0.14873E-01  6216   0.830E-01    0.192E+00
RMM:   5    -0.905583814507E+02    0.74686E-01   -0.71103E-02  6502   0.469E-01    0.959E-01
RMM:   6    -0.905548283779E+02    0.35531E-02   -0.13466E-02  7373   0.212E-01    0.622E-01
RMM:   7    -0.905511494166E+02    0.36790E-02   -0.81613E-03  7070   0.140E-01    0.206E-01
RMM:   8    -0.905518691598E+02   -0.71974E-03   -0.21153E-03  6898   0.814E-02    0.197E-01
RMM:   9    -0.905518643021E+02    0.48577E-05   -0.93216E-04  6152   0.508E-02    0.869E-02
RMM:  10    -0.905519188588E+02   -0.54557E-04   -0.69797E-04  5680   0.420E-02    0.373E-02
RMM:  11    -0.905519781854E+02   -0.59327E-04   -0.27475E-04  5389   0.257E-02    0.256E-02
RMM:  12    -0.905520070216E+02   -0.28836E-04   -0.15388E-04  5056   0.171E-02    0.150E-02
RMM:  13    -0.905520324013E+02   -0.25380E-04   -0.86352E-05  4886   0.135E-02    0.760E-03
RMM:  14    -0.905520524991E+02   -0.20098E-04   -0.56923E-05  4185   0.982E-03    0.526E-03
RMM:  15    -0.905520749187E+02   -0.22420E-04   -0.39134E-05  3956   0.823E-03    0.308E-03
RMM:  16    -0.905520771709E+02   -0.22522E-05   -0.22809E-05  3220   0.683E-03
   7 F= -.93656810E+02 E0= -.93649662E+02  d E =-.563218E+01
       N       E                     dE             d eps       ncg     rms          rms(c)
DAV:   1    -0.905687512158E+02   -0.16676E-01   -0.23618E+00  6096   0.252E+00    0.280E+00
RMM:   2    -0.906447756068E+02   -0.76024E-01   -0.89174E-02  6139   0.524E-01    0.256E+00
RMM:   3    -0.907354412006E+02   -0.90666E-01   -0.11332E-01  6181   0.479E-01    0.358E+00
RMM:   4    -0.905856948474E+02    0.14975E+00   -0.21581E-02  6068   0.330E-01    0.148E+00
RMM:   5    -0.905721617720E+02    0.13533E-01   -0.15571E-02  6298   0.191E-01    0.699E-01
RMM:   6    -0.905714824698E+02    0.67930E-03   -0.18663E-03  6332   0.718E-02    0.329E-01
RMM:   7    -0.905715512811E+02   -0.68811E-04   -0.95615E-04  5852   0.486E-02    0.172E-01
RMM:   8    -0.905717511285E+02   -0.19985E-03   -0.30790E-04  5464   0.298E-02    0.129E-01
RMM:   9    -0.905718158241E+02   -0.64696E-04   -0.16351E-04  5197   0.200E-02    0.711E-02
RMM:  10    -0.905718360124E+02   -0.20188E-04   -0.16224E-04  5344   0.195E-02    0.195E-02
RMM:  11    -0.905718545738E+02   -0.18561E-04   -0.60304E-05  4558   0.115E-02    0.626E-03
RMM:  12    -0.905718621938E+02   -0.76200E-05   -0.30623E-05  3814   0.798E-03
   8 F= -.93676050E+02 E0= -.93668786E+02  d E =-.565142E+01
       N       E                     dE             d eps       ncg     rms          rms(c)
DAV:   1    -0.854367974359E+02    0.51351E+01   -0.71304E+02  5632   0.458E+01    0.320E+01
RMM:   2    -0.891854688137E+02   -0.37487E+01   -0.44896E+01  6420   0.113E+01    0.122E+01
RMM:   3    -0.926690470317E+02   -0.34836E+01   -0.77151E+00  6769   0.605E+00    0.138E+01
RMM:   4    -0.885851413768E+02    0.40839E+01   -0.16620E+00  7000   0.320E+00    0.844E+00
RMM:   5    -0.884672685263E+02    0.11787E+00   -0.11455E+00  7768   0.212E+00    0.208E+00
RMM:   6    -0.883897427337E+02    0.77526E-01   -0.26565E-01  7350   0.119E+00    0.170E+00
RMM:   7    -0.883947047866E+02   -0.49621E-02   -0.13807E-01  8773   0.678E-01    0.140E+00
RMM:   8    -0.883941866206E+02    0.51817E-03   -0.72161E-02  8766   0.421E-01    0.690E-01
RMM:   9    -0.883957448804E+02   -0.15583E-02   -0.37853E-02  8396   0.295E-01    0.144E-01
RMM:  10    -0.883982533090E+02   -0.25084E-02   -0.21562E-02  8738   0.205E-01    0.103E-01
RMM:  11    -0.883998359617E+02   -0.15827E-02   -0.12207E-02  8296   0.145E-01    0.892E-02
RMM:  12    -0.884013496511E+02   -0.15137E-02   -0.75161E-03  7662   0.115E-01    0.405E-02
RMM:  13    -0.884023726492E+02   -0.10230E-02   -0.49447E-03  7362   0.885E-02    0.249E-02
RMM:  14    -0.884028890378E+02   -0.51639E-03   -0.31209E-03  6861   0.689E-02    0.262E-02
RMM:  15    -0.884033698225E+02   -0.48078E-03   -0.21322E-03  6581   0.555E-02    0.188E-02
RMM:  16    -0.884041297382E+02   -0.75992E-03   -0.15214E-03  6328   0.464E-02    0.130E-02
RMM:  17    -0.884042167463E+02   -0.87008E-04   -0.97811E-04  6001   0.361E-02    0.432E-03
RMM:  18    -0.884043498127E+02   -0.13307E-03   -0.58253E-04  5251   0.283E-02    0.708E-03
RMM:  19    -0.884044692987E+02   -0.11949E-03   -0.45463E-04  4851   0.230E-02    0.109E-02
RMM:  20    -0.884045092607E+02   -0.39962E-04   -0.25540E-04  4620   0.188E-02    0.110E-02
RMM:  21    -0.884045381006E+02   -0.28840E-04   -0.19886E-04  4411   0.157E-02    0.846E-03
RMM:  22    -0.884045540133E+02   -0.15913E-04   -0.12871E-04  3941   0.128E-02    0.732E-03
RMM:  23    -0.884045703338E+02   -0.16321E-04   -0.87926E-05  3874   0.111E-02    0.449E-03
RMM:  24    -0.884045803775E+02   -0.10044E-04   -0.63056E-05  3477   0.948E-03    0.300E-03
RMM:  25    -0.884045846560E+02   -0.42786E-05   -0.42836E-05  3210   0.832E-03
   9 F= -.91530640E+02 E0= -.91521181E+02  d E =0.214541E+01
       N       E                     dE             d eps       ncg     rms          rms(c)
DAV:   1    -0.905251186278E+02   -0.21205E+01   -0.50562E+02  5440   0.377E+01    0.250E+01
RMM:   2    -0.947516557498E+02   -0.42265E+01   -0.22682E+01  6341   0.905E+00    0.124E+01
RMM:   3    -0.987552320651E+02   -0.40036E+01   -0.12905E+01  6451   0.650E+00    0.188E+01
RMM:   4    -0.914138251480E+02    0.73414E+01   -0.17176E+00  6457   0.305E+00    0.108E+01
RMM:   5    -0.913880230838E+02    0.25802E-01   -0.63115E-01  8055   0.144E+00    0.858E+00
RMM:   6    -0.913847647981E+02    0.32583E-02   -0.62352E-01  6965   0.140E+00    0.266E+00
RMM:   7    -0.912767625040E+02    0.10800E+00   -0.15319E-01  7599   0.766E-01    0.247E+00
RMM:   8    -0.912578431917E+02    0.18919E-01   -0.96512E-02  8329   0.451E-01    0.125E+00
RMM:   9    -0.912469893808E+02    0.10854E-01   -0.49143E-02  7716   0.339E-01    0.756E-01
RMM:  10    -0.912455832376E+02    0.14061E-02   -0.34240E-02  8267   0.250E-01    0.255E-01
RMM:  11    -0.912473610346E+02   -0.17778E-02   -0.11079E-02  7996   0.161E-01    0.344E-01
RMM:  12    -0.912485158080E+02   -0.11548E-02   -0.82833E-03  8465   0.119E-01    0.177E-01
RMM:  13    -0.912496223925E+02   -0.11066E-02   -0.61353E-03  7531   0.101E-01    0.134E-01
RMM:  14    -0.912500516700E+02   -0.42928E-03   -0.29760E-03  6700   0.655E-02    0.108E-01
RMM:  15    -0.912504006482E+02   -0.34898E-03   -0.17129E-03  6245   0.489E-02    0.676E-02
RMM:  16    -0.912506312969E+02   -0.23065E-03   -0.97807E-04  6054   0.398E-02    0.207E-02
RMM:  17    -0.912509017907E+02   -0.27049E-03   -0.69041E-04  5671   0.314E-02    0.165E-02
RMM:  18    -0.912509759449E+02   -0.74154E-04   -0.44838E-04  5292   0.240E-02    0.137E-02
RMM:  19    -0.912510542009E+02   -0.78256E-04   -0.30242E-04  4963   0.195E-02    0.568E-03
RMM:  20    -0.912510826085E+02   -0.28408E-04   -0.20368E-04  4675   0.155E-02    0.352E-03
RMM:  21    -0.912510956806E+02   -0.13072E-04   -0.12594E-04  4034   0.123E-02    0.406E-03
RMM:  22    -0.912511049461E+02   -0.92655E-05   -0.90532E-05  3726   0.103E-02
  10 F= -.94358727E+02 E0= -.94350116E+02  d E =-.682677E+00
       N       E                     dE             d eps       ncg     rms          rms(c)
DAV:   1    -0.917429490991E+02   -0.49185E+00   -0.11850E+01  5584   0.586E+00    0.449E+00
RMM:   2    -0.925781539298E+02   -0.83520E+00   -0.10552E+00  6211   0.161E+00    0.586E+00
RMM:   3    -0.918202930192E+02    0.75786E+00   -0.31181E-01  6149   0.102E+00    0.318E+00
RMM:   4    -0.917368080139E+02    0.83485E-01   -0.10019E-01  6697   0.605E-01    0.120E+00
RMM:   5    -0.917032466660E+02    0.33561E-01   -0.16563E-02  6818   0.284E-01    0.638E-01
RMM:   6    -0.916997141642E+02    0.35325E-02   -0.77167E-03  8032   0.157E-01    0.300E-01
RMM:   7    -0.916998448789E+02   -0.13071E-03   -0.30010E-03  7685   0.867E-02    0.206E-01
RMM:   8    -0.917000642738E+02   -0.21939E-03   -0.98111E-04  6389   0.533E-02    0.831E-02
RMM:   9    -0.917000886841E+02   -0.24410E-04   -0.69353E-04  5877   0.426E-02    0.185E-02
RMM:  10    -0.917001680488E+02   -0.79365E-04   -0.36886E-04  5559   0.283E-02    0.185E-02
RMM:  11    -0.917002143065E+02   -0.46258E-04   -0.15677E-04  5154   0.192E-02    0.157E-02
RMM:  12    -0.917002562940E+02   -0.41988E-04   -0.87356E-05  4864   0.133E-02    0.860E-03
RMM:  13    -0.917002961525E+02   -0.39858E-04   -0.51043E-05  4388   0.107E-02    0.415E-03
RMM:  14    -0.917003535921E+02   -0.57440E-04   -0.38446E-05  4204   0.852E-03    0.434E-03
RMM:  15    -0.917003538978E+02   -0.30570E-06   -0.17750E-05  3007   0.639E-03
  11 F= -.94810676E+02 E0= -.94801953E+02  d E =-.113463E+01
       N       E                     dE             d eps       ncg     rms          rms(c)
DAV:   1    -0.920264850235E+02   -0.32613E+00   -0.93551E+01  5440   0.169E+01    0.945E+00
RMM:   2    -0.927663132057E+02   -0.73983E+00   -0.44538E+00  6185   0.376E+00    0.597E+00
RMM:   3    -0.931140670867E+02   -0.34775E+00   -0.91294E-01  6387   0.213E+00    0.642E+00
RMM:   4    -0.922511207862E+02    0.86295E+00   -0.36838E-01  6746   0.135E+00    0.295E+00
RMM:   5    -0.920628625029E+02    0.18826E+00   -0.11939E-01  7447   0.711E-01    0.119E+00
RMM:   6    -0.920307339636E+02    0.32129E-01   -0.99997E-02  8135   0.474E-01    0.485E-01
RMM:   7    -0.920334949672E+02   -0.27610E-02   -0.28066E-02  8619   0.265E-01    0.480E-01
RMM:   8    -0.920337962946E+02   -0.30133E-03   -0.10109E-02  8450   0.163E-01    0.321E-01
RMM:   9    -0.920339779448E+02   -0.18165E-03   -0.57110E-03  8068   0.118E-01    0.107E-01
RMM:  10    -0.920342527272E+02   -0.27478E-03   -0.28995E-03  7659   0.840E-02    0.341E-02
RMM:  11    -0.920346013779E+02   -0.34865E-03   -0.18014E-03  7090   0.580E-02    0.322E-02
RMM:  12    -0.920348920410E+02   -0.29066E-03   -0.99727E-04  6665   0.443E-02    0.183E-02
RMM:  13    -0.920350301856E+02   -0.13814E-03   -0.68585E-04  6067   0.330E-02    0.119E-02
RMM:  14    -0.920352706270E+02   -0.24044E-03   -0.40752E-04  5702   0.268E-02    0.874E-03
RMM:  15    -0.920354490184E+02   -0.17839E-03   -0.31071E-04  5319   0.208E-02    0.440E-03
RMM:  16    -0.920355376183E+02   -0.88600E-04   -0.16857E-04  4897   0.166E-02    0.333E-03
RMM:  17    -0.920355916957E+02   -0.54077E-04   -0.11719E-04  4343   0.134E-02    0.318E-03
RMM:  18    -0.920356140729E+02   -0.22377E-04   -0.72567E-05  3884   0.109E-02    0.371E-03
RMM:  19    -0.920356259489E+02   -0.11876E-04   -0.50301E-05  3619   0.936E-03    0.353E-03
RMM:  20    -0.920356303648E+02   -0.44159E-05   -0.33681E-05  3331   0.807E-03
  12 F= -.95153688E+02 E0= -.95146813E+02  d E =-.147764E+01
       N       E                     dE             d eps       ncg     rms          rms(c)
DAV:   1    -0.921651243335E+02   -0.12950E+00   -0.18340E+01  5584   0.762E+00    0.465E+00
RMM:   2    -0.928219151474E+02   -0.65679E+00   -0.10979E+00  6112   0.181E+00    0.449E+00
RMM:   3    -0.922850174780E+02    0.53690E+00   -0.28991E-01  6287   0.118E+00    0.285E+00
RMM:   4    -0.921374071406E+02    0.14761E+00   -0.10614E-01  6819   0.680E-01    0.133E+00
RMM:   5    -0.921323053730E+02    0.51018E-02   -0.23915E-02  8211   0.337E-01    0.639E-01
RMM:   6    -0.921316554340E+02    0.64994E-03   -0.75245E-03  8294   0.182E-01    0.265E-01
RMM:   7    -0.921320731359E+02   -0.41770E-03   -0.35393E-03  8338   0.111E-01    0.111E-01
RMM:   8    -0.921325224560E+02   -0.44932E-03   -0.20465E-03  7886   0.713E-02    0.421E-02
RMM:   9    -0.921328226875E+02   -0.30023E-03   -0.10967E-03  7095   0.511E-02    0.330E-02
RMM:  10    -0.921329525120E+02   -0.12982E-03   -0.66527E-04  6504   0.375E-02    0.205E-02
RMM:  11    -0.921330904201E+02   -0.13791E-03   -0.40334E-04  6135   0.295E-02    0.113E-02
RMM:  12    -0.921331819274E+02   -0.91507E-04   -0.27807E-04  5583   0.226E-02    0.290E-03
RMM:  13    -0.921332294078E+02   -0.47480E-04   -0.15767E-04  5175   0.177E-02    0.356E-03
RMM:  14    -0.921332635855E+02   -0.34178E-04   -0.10496E-04  4698   0.141E-02    0.190E-03
RMM:  15    -0.921332756798E+02   -0.12094E-04   -0.66429E-05  3995   0.112E-02    0.166E-03
RMM:  16    -0.921332824561E+02   -0.67764E-05   -0.42683E-05  3703   0.951E-03
  13 F= -.95247887E+02 E0= -.95240288E+02  d E =-.157184E+01
       N       E                     dE             d eps       ncg     rms          rms(c)
DAV:   1    -0.921591386698E+02   -0.25863E-01   -0.13999E+00  6048   0.226E+00    0.119E+00
RMM:   2    -0.922120281516E+02   -0.52889E-01   -0.95225E-02  6309   0.547E-01    0.172E+00
RMM:   3    -0.921668411393E+02    0.45187E-01   -0.22412E-02  6253   0.322E-01    0.956E-01
RMM:   4    -0.921601191075E+02    0.67220E-02   -0.83998E-03  6801   0.184E-01    0.460E-01
RMM:   5    -0.921573955457E+02    0.27236E-02   -0.18668E-03  7271   0.946E-02    0.109E-01
RMM:   6    -0.921574943998E+02   -0.98854E-04   -0.74927E-04  6797   0.503E-02    0.727E-02
RMM:   7    -0.921575599614E+02   -0.65562E-04   -0.30399E-04  6065   0.311E-02    0.537E-02
RMM:   8    -0.921575831358E+02   -0.23174E-04   -0.13322E-04  5406   0.199E-02    0.333E-02
RMM:   9    -0.921575979400E+02   -0.14804E-04   -0.77984E-05  4709   0.149E-02    0.953E-03
RMM:  10    -0.921576116859E+02   -0.13746E-04   -0.39813E-05  4034   0.106E-02    0.359E-03
RMM:  11    -0.921576278040E+02   -0.16118E-04   -0.24086E-05  3708   0.910E-03    0.261E-03
RMM:  12    -0.921576455407E+02   -0.17737E-04   -0.20264E-05  3557   0.791E-03    0.127E-03
RMM:  13    -0.921576527554E+02   -0.72147E-05   -0.13082E-05  2998   0.661E-03
  14 F= -.95273210E+02 E0= -.95265901E+02  d E =-.159716E+01
       N       E                     dE             d eps       ncg     rms          rms(c)
DAV:   1    -0.917745178620E+02    0.38313E+00   -0.15752E+02  5440   0.267E+01    0.106E+01
RMM:   2    -0.926019054392E+02   -0.82739E+00   -0.81492E+00  6853   0.602E+00    0.564E+00
RMM:   3    -0.939175637899E+02   -0.13157E+01   -0.18896E+00  6984   0.309E+00    0.704E+00
RMM:   4    -0.926019428827E+02    0.13156E+01   -0.36832E-01  7185   0.158E+00    0.343E+00
RMM:   5    -0.925277583222E+02    0.74185E-01   -0.18059E-01  8325   0.897E-01    0.205E+00
RMM:   6    -0.925405194531E+02   -0.12761E-01   -0.13656E-01  7957   0.633E-01    0.119E+00
RMM:   7    -0.925182376453E+02    0.22282E-01   -0.32375E-02  8324   0.387E-01    0.494E-01
RMM:   8    -0.925185269954E+02   -0.28935E-03   -0.19983E-02  8863   0.242E-01    0.261E-01
RMM:   9    -0.925187779040E+02   -0.25091E-03   -0.73244E-03  8942   0.151E-01    0.111E-01
RMM:  10    -0.925190461790E+02   -0.26828E-03   -0.40335E-03  8670   0.103E-01    0.389E-02
RMM:  11    -0.925193110764E+02   -0.26490E-03   -0.22322E-03  8113   0.767E-02    0.174E-02
RMM:  12    -0.925194673910E+02   -0.15631E-03   -0.13886E-03  7710   0.583E-02    0.116E-02
RMM:  13    -0.925195661513E+02   -0.98760E-04   -0.85871E-04  7269   0.453E-02    0.802E-03
RMM:  14    -0.925196264224E+02   -0.60271E-04   -0.54183E-04  6831   0.356E-02    0.887E-03
RMM:  15    -0.925196648348E+02   -0.38412E-04   -0.35377E-04  6372   0.282E-02    0.140E-02
RMM:  16    -0.925196909692E+02   -0.26134E-04   -0.23777E-04  5839   0.226E-02    0.185E-02
RMM:  17    -0.925197084594E+02   -0.17490E-04   -0.14857E-04  5477   0.185E-02    0.132E-02
RMM:  18    -0.925197188975E+02   -0.10438E-04   -0.10222E-04  4778   0.148E-02    0.162E-02
RMM:  19    -0.925197255299E+02   -0.66325E-05   -0.67441E-05  4275   0.123E-02
  15 F= -.95646051E+02 E0= -.95638935E+02  d E =-.372841E+00
       N       E                     dE             d eps       ncg     rms          rms(c)
DAV:   1    -0.925181851712E+02    0.15337E-02   -0.19262E+00  5856   0.294E+00    0.774E-01
RMM:   2    -0.925269191112E+02   -0.87339E-02   -0.75069E-02  7064   0.622E-01    0.473E-01
RMM:   3    -0.925335209904E+02   -0.66019E-02   -0.16132E-02  8027   0.310E-01    0.678E-01
RMM:   4    -0.925252141382E+02    0.83069E-02   -0.28055E-03  7532   0.149E-01    0.234E-01
RMM:   5    -0.925255378628E+02   -0.32372E-03   -0.13152E-03  8057   0.829E-02    0.141E-01
RMM:   6    -0.925252589068E+02    0.27896E-03   -0.41655E-04  7393   0.481E-02    0.456E-02
RMM:   7    -0.925252690432E+02   -0.10136E-04   -0.22021E-04  6767   0.284E-02    0.143E-02
RMM:   8    -0.925252846055E+02   -0.15562E-04   -0.10809E-04  5504   0.186E-02    0.641E-03
RMM:   9    -0.925252912510E+02   -0.66456E-05   -0.56601E-05  4552   0.132E-02
  16 F= -.95650274E+02 E0= -.95643276E+02  d E =-.377064E+00
       N       E                     dE             d eps       ncg     rms          rms(c)
DAV:   1    -0.923626366350E+02    0.16265E+00   -0.72032E+01  5440   0.189E+01    0.400E+00
RMM:   2    -0.926701982519E+02   -0.30756E+00   -0.29322E+00  6703   0.399E+00    0.249E+00
RMM:   3    -0.927817225832E+02   -0.11152E+00   -0.53202E-01  7564   0.194E+00    0.293E+00
RMM:   4    -0.926026889434E+02    0.17903E+00   -0.10297E-01  8090   0.876E-01    0.114E+00
RMM:   5    -0.926009829299E+02    0.17060E-02   -0.46376E-02  8978   0.468E-01    0.519E-01
RMM:   6    -0.925990471459E+02    0.19358E-02   -0.16502E-02  8571   0.271E-01    0.292E-01
RMM:   7    -0.925998510425E+02   -0.80390E-03   -0.82893E-03  9033   0.163E-01    0.198E-01
RMM:   8    -0.926002061897E+02   -0.35515E-03   -0.41864E-03  8745   0.105E-01    0.479E-02
RMM:   9    -0.926004934387E+02   -0.28725E-03   -0.22013E-03  7971   0.729E-02    0.412E-02
RMM:  10    -0.926006941879E+02   -0.20075E-03   -0.12928E-03  7639   0.535E-02    0.189E-02
RMM:  11    -0.926008371856E+02   -0.14300E-03   -0.81610E-04  7183   0.403E-02    0.225E-02
RMM:  12    -0.926010166310E+02   -0.17945E-03   -0.45662E-04  6947   0.329E-02    0.799E-03
RMM:  13    -0.926010485325E+02   -0.31901E-04   -0.32528E-04  6316   0.249E-02    0.443E-03
RMM:  14    -0.926011005151E+02   -0.51983E-04   -0.17904E-04  5781   0.194E-02    0.504E-03
RMM:  15    -0.926011674569E+02   -0.66942E-04   -0.13792E-04  5295   0.158E-02    0.358E-03
RMM:  16    -0.926012031449E+02   -0.35688E-04   -0.77462E-05  4622   0.126E-02    0.103E-03
RMM:  17    -0.926012183866E+02   -0.15242E-04   -0.50678E-05  4056   0.104E-02    0.967E-04
RMM:  18    -0.926012266424E+02   -0.82558E-05   -0.32622E-05  3581   0.865E-03
  17 F= -.95734739E+02 E0= -.95724852E+02  d E =-.844642E-01
       N       E                     dE             d eps       ncg     rms          rms(c)
DAV:   1    -0.926159387168E+02   -0.14720E-01   -0.78766E+00  5472   0.606E+00    0.118E+00
RMM:   2    -0.926460375902E+02   -0.30099E-01   -0.27070E-01  6795   0.128E+00    0.806E-01
RMM:   3    -0.926522094350E+02   -0.61718E-02   -0.58191E-02  8055   0.640E-01    0.921E-01
RMM:   4    -0.926379485444E+02    0.14261E-01   -0.99880E-03  8221   0.275E-01    0.448E-01
RMM:   5    -0.926384185603E+02   -0.47002E-03   -0.40567E-03  8570   0.146E-01    0.284E-01
RMM:   6    -0.926377679888E+02    0.65057E-03   -0.17074E-03  8238   0.934E-02    0.904E-02
RMM:   7    -0.926378727908E+02   -0.10480E-03   -0.90270E-04  7864   0.563E-02    0.226E-02
RMM:   8    -0.926379551736E+02   -0.82383E-04   -0.44813E-04  6966   0.364E-02    0.126E-02
RMM:   9    -0.926380142109E+02   -0.59037E-04   -0.26478E-04  6301   0.255E-02    0.817E-03
RMM:  10    -0.926380658909E+02   -0.51680E-04   -0.15754E-04  5770   0.195E-02    0.234E-03
RMM:  11    -0.926380854613E+02   -0.19570E-04   -0.98479E-05  5035   0.146E-02    0.279E-03
RMM:  12    -0.926380999798E+02   -0.14518E-04   -0.57854E-05  4543   0.118E-02    0.228E-03
RMM:  13    -0.926381098491E+02   -0.98694E-05   -0.41311E-05  4044   0.989E-03
  18 F= -.95768721E+02 E0= -.95759912E+02  d E =-.118447E+00
       N       E                     dE             d eps       ncg     rms          rms(c)
DAV:   1    -0.926599821117E+02   -0.21882E-01   -0.12896E+01  5440   0.846E+00    0.104E+00
RMM:   2    -0.926935999494E+02   -0.33618E-01   -0.31288E-01  6208   0.173E+00    0.594E-01
RMM:   3    -0.927084620403E+02   -0.14862E-01   -0.90341E-02  8302   0.948E-01    0.897E-01
RMM:   4    -0.926957728435E+02    0.12689E-01   -0.11088E-02  8306   0.329E-01    0.479E-01
RMM:   5    -0.926959614361E+02   -0.18859E-03   -0.33213E-03  8689   0.147E-01    0.293E-01
RMM:   6    -0.926954457998E+02    0.51564E-03   -0.14772E-03  7818   0.877E-02    0.848E-02
RMM:   7    -0.926954637302E+02   -0.17930E-04   -0.63766E-04  7155   0.555E-02    0.238E-02
RMM:   8    -0.926954982793E+02   -0.34549E-04   -0.38791E-04  6405   0.356E-02    0.136E-02
RMM:   9    -0.926955197718E+02   -0.21492E-04   -0.20117E-04  5486   0.245E-02    0.963E-03
RMM:  10    -0.926955329714E+02   -0.13200E-04   -0.11637E-04  5032   0.171E-02    0.366E-03
RMM:  11    -0.926955404272E+02   -0.74559E-05   -0.66189E-05  4624   0.129E-02
  19 F= -.95828248E+02 E0= -.95818835E+02  d E =-.595273E-01
       N       E                     dE             d eps       ncg     rms          rms(c)
DAV:   1    -0.924405531485E+02    0.25498E+00   -0.97393E+01  5440   0.237E+01    0.332E+00
RMM:   2    -0.927335737118E+02   -0.29302E+00   -0.28597E+00  6189   0.489E+00    0.151E+00
RMM:   3    -0.928937678901E+02   -0.16019E+00   -0.80731E-01  8146   0.283E+00    0.249E+00
RMM:   4    -0.927657024847E+02    0.12807E+00   -0.10399E-01  8147   0.100E+00    0.142E+00
RMM:   5    -0.927669877486E+02   -0.12853E-02   -0.24472E-02  8894   0.416E-01    0.105E+00
RMM:   6    -0.927646200955E+02    0.23677E-02   -0.14189E-02  7976   0.261E-01    0.324E-01
RMM:   7    -0.927646668761E+02   -0.46781E-04   -0.58419E-03  7503   0.192E-01    0.264E-01
RMM:   8    -0.927646685052E+02   -0.16291E-05   -0.33510E-03  7940   0.120E-01    0.720E-02
RMM:   9    -0.927648191056E+02   -0.15060E-03   -0.18565E-03  7764   0.735E-02    0.398E-02
RMM:  10    -0.927649119564E+02   -0.92851E-04   -0.89806E-04  6618   0.507E-02    0.331E-02
RMM:  11    -0.927649730873E+02   -0.61131E-04   -0.58176E-04  6272   0.358E-02    0.702E-03
RMM:  12    -0.927650113956E+02   -0.38308E-04   -0.36338E-04  5669   0.265E-02    0.855E-03
RMM:  13    -0.927650348933E+02   -0.23498E-04   -0.22930E-04  5190   0.206E-02    0.108E-02
RMM:  14    -0.927650509606E+02   -0.16067E-04   -0.15223E-04  4752   0.159E-02    0.128E-02
RMM:  15    -0.927650613414E+02   -0.10381E-04   -0.92130E-05  4840   0.135E-02    0.139E-02
RMM:  16    -0.927650687220E+02   -0.73806E-05   -0.66565E-05  4197   0.109E-02
  20 F= -.95904342E+02 E0= -.95893635E+02  d E =-.135621E+00
       N       E                     dE             d eps       ncg     rms          rms(c)
DAV:   1    -0.927195018412E+02    0.45560E-01   -0.20791E+01  5624   0.105E+01    0.128E+00
RMM:   2    -0.927779596554E+02   -0.58458E-01   -0.52396E-01  6211   0.218E+00    0.826E-01
RMM:   3    -0.927873838555E+02   -0.94242E-02   -0.13119E-01  7961   0.120E+00    0.974E-01
RMM:   4    -0.927709484653E+02    0.16435E-01   -0.18291E-02  8068   0.416E-01    0.479E-01
RMM:   5    -0.927707055775E+02    0.24289E-03   -0.54663E-03  8574   0.187E-01    0.268E-01
RMM:   6    -0.927702415194E+02    0.46406E-03   -0.20628E-03  7851   0.106E-01    0.950E-02
RMM:   7    -0.927702784304E+02   -0.36911E-04   -0.88898E-04  7432   0.623E-02    0.279E-02
RMM:   8    -0.927703310429E+02   -0.52612E-04   -0.45449E-04  6321   0.372E-02    0.110E-02
RMM:   9    -0.927703736082E+02   -0.42565E-04   -0.23667E-04  5757   0.262E-02    0.725E-03
RMM:  10    -0.927704164402E+02   -0.42832E-04   -0.14574E-04  5352   0.186E-02    0.355E-03
RMM:  11    -0.927704397386E+02   -0.23298E-04   -0.93568E-05  4902   0.139E-02    0.290E-03
RMM:  12    -0.927704726749E+02   -0.32936E-04   -0.55038E-05  4590   0.107E-02    0.138E-03
RMM:  13    -0.927704964898E+02   -0.23815E-04   -0.41784E-05  4292   0.861E-03    0.974E-04
RMM:  14    -0.927705050696E+02   -0.85797E-05   -0.22496E-05  3644   0.708E-03
  21 F= -.95912046E+02 E0= -.95900456E+02  d E =-.770388E-02
       N       E                     dE             d eps       ncg     rms          rms(c)
DAV:   1    -0.927761848073E+02   -0.56883E-02   -0.38827E+00  5744   0.442E+00    0.507E-01
RMM:   2    -0.927855388990E+02   -0.93541E-02   -0.86895E-02  6126   0.908E-01    0.345E-01
RMM:   3    -0.927867863412E+02   -0.12474E-02   -0.22753E-02  7701   0.481E-01    0.405E-01
RMM:   4    -0.927844954959E+02    0.22908E-02   -0.32272E-03  8083   0.174E-01    0.230E-01
RMM:   5    -0.927844936662E+02    0.18297E-05   -0.93211E-04  7600   0.769E-02    0.132E-01
RMM:   6    -0.927843902472E+02    0.10342E-03   -0.41472E-04  6620   0.481E-02    0.384E-02
RMM:   7    -0.927844056247E+02   -0.15377E-04   -0.16106E-04  5803   0.270E-02    0.124E-02
RMM:   8    -0.927844270711E+02   -0.21446E-04   -0.83560E-05  5014   0.174E-02    0.658E-03
RMM:   9    -0.927844406819E+02   -0.13611E-04   -0.43342E-05  4403   0.118E-02    0.357E-03
RMM:  10    -0.927844516825E+02   -0.11001E-04   -0.21752E-05  3966   0.870E-03    0.192E-03
RMM:  11    -0.927844616166E+02   -0.99341E-05   -0.17567E-05  3856   0.739E-03
  22 F= -.95925012E+02 E0= -.95913771E+02  d E =-.206695E-01
       N       E                     dE             d eps       ncg     rms          rms(c)
DAV:   1    -0.927883446991E+02   -0.38930E-02   -0.65806E+00  5528   0.617E+00    0.767E-01
RMM:   2    -0.928048781609E+02   -0.16533E-01   -0.16395E-01  6377   0.128E+00    0.384E-01
RMM:   3    -0.928147922855E+02   -0.99141E-02   -0.40728E-02  8374   0.679E-01    0.584E-01
RMM:   4    -0.928066566499E+02    0.81356E-02   -0.58379E-03  8402   0.250E-01    0.212E-01
RMM:   5    -0.928067663057E+02   -0.10966E-03   -0.15595E-03  8589   0.112E-01    0.121E-01
RMM:   6    -0.928067835670E+02   -0.17261E-04   -0.56947E-04  7728   0.615E-02    0.475E-02
RMM:   7    -0.928068038120E+02   -0.20245E-04   -0.27747E-04  7113   0.381E-02    0.125E-02
RMM:   8    -0.928068214849E+02   -0.17673E-04   -0.15459E-04  6468   0.248E-02    0.915E-03
RMM:   9    -0.928068309835E+02   -0.94986E-05   -0.84730E-05  5606   0.173E-02
  23 F= -.95947454E+02 E0= -.95936301E+02  d E =-.224425E-01
       N       E                     dE             d eps       ncg     rms          rms(c)
DAV:   1    -0.927751535636E+02    0.31668E-01   -0.16011E+01  5440   0.967E+00    0.119E+00
RMM:   2    -0.928163329308E+02   -0.41179E-01   -0.41162E-01  6339   0.203E+00    0.595E-01
RMM:   3    -0.928400350759E+02   -0.23702E-01   -0.10501E-01  8456   0.111E+00    0.893E-01
RMM:   4    -0.928214593557E+02    0.18576E-01   -0.15364E-02  8447   0.399E-01    0.360E-01
RMM:   5    -0.928217949828E+02   -0.33563E-03   -0.39746E-03  8910   0.176E-01    0.222E-01
RMM:   6    -0.928218216776E+02   -0.26695E-04   -0.16280E-03  8314   0.997E-02    0.779E-02
RMM:   7    -0.928218684724E+02   -0.46795E-04   -0.78445E-04  7776   0.635E-02    0.221E-02
RMM:   8    -0.928219138849E+02   -0.45413E-04   -0.46981E-04  7154   0.418E-02    0.146E-02
RMM:   9    -0.928219406891E+02   -0.26804E-04   -0.25141E-04  6559   0.290E-02    0.134E-02
RMM:  10    -0.928219567665E+02   -0.16077E-04   -0.14312E-04  6011   0.212E-02    0.666E-03
RMM:  11    -0.928219668391E+02   -0.10073E-04   -0.88718E-05  5556   0.164E-02    0.294E-03
RMM:  12    -0.928219729620E+02   -0.61229E-05   -0.57065E-05  5005   0.127E-02
  24 F= -.95962795E+02 E0= -.95951880E+02  d E =-.377833E-01
       N       E                     dE             d eps       ncg     rms          rms(c)
DAV:   1    -0.928342950139E+02   -0.12328E-01   -0.96249E-01  5872   0.250E+00    0.227E-01
RMM:   2    -0.928370873543E+02   -0.27923E-02   -0.30650E-02  6150   0.569E-01    0.107E-01
RMM:   3    -0.928381062000E+02   -0.10188E-02   -0.81468E-03  7926   0.296E-01    0.123E-01
RMM:   4    -0.928379412807E+02    0.16492E-03   -0.11310E-03  7969   0.108E-01    0.813E-02
RMM:   5    -0.928379463380E+02   -0.50573E-05   -0.29150E-04  7508   0.464E-02    0.597E-02
RMM:   6    -0.928379650558E+02   -0.18718E-04   -0.14383E-04  6318   0.273E-02    0.217E-02
RMM:   7    -0.928379743864E+02   -0.93306E-05   -0.71560E-05  5402   0.185E-02
  25 F= -.95977722E+02 E0= -.95967013E+02  d E =-.149264E-01
       N       E                     dE             d eps       ncg     rms          rms(c)
DAV:   1    -0.928450745657E+02   -0.71095E-02   -0.86366E+00  5448   0.753E+00    0.716E-01
RMM:   2    -0.928703170457E+02   -0.25242E-01   -0.27985E-01  6202   0.178E+00    0.325E-01
RMM:   3    -0.928797143662E+02   -0.93973E-02   -0.77049E-02  8236   0.909E-01    0.379E-01
RMM:   4    -0.928784894117E+02    0.12250E-02   -0.10507E-02  8456   0.331E-01    0.261E-01
RMM:   5    -0.928785165364E+02   -0.27125E-04   -0.25752E-03  8381   0.138E-01    0.198E-01
RMM:   6    -0.928786091534E+02   -0.92617E-04   -0.12673E-03  7832   0.804E-02    0.708E-02
RMM:   7    -0.928786808350E+02   -0.71682E-04   -0.58191E-04  7148   0.553E-02    0.669E-02
RMM:   8    -0.928786913191E+02   -0.10484E-04   -0.31322E-04  6607   0.361E-02    0.299E-02
RMM:   9    -0.928787061351E+02   -0.14816E-04   -0.22715E-04  6279   0.268E-02    0.190E-02
RMM:  10    -0.928787171540E+02   -0.11019E-04   -0.11133E-04  5508   0.185E-02    0.158E-02
RMM:  11    -0.928787259996E+02   -0.88456E-05   -0.67328E-05  4924   0.135E-02
  26 F= -.96015324E+02 E0= -.96005271E+02  d E =-.525293E-01
       N       E                     dE             d eps       ncg     rms          rms(c)
DAV:   1    -0.927880390885E+02    0.90678E-01   -0.34619E+01  5456   0.153E+01    0.154E+00
RMM:   2    -0.928927866248E+02   -0.10475E+00   -0.11628E+00  6202   0.368E+00    0.668E-01
RMM:   3    -0.929333686670E+02   -0.40582E-01   -0.33965E-01  8220   0.188E+00    0.815E-01
RMM:   4    -0.929285630583E+02    0.48056E-02   -0.47247E-02  8590   0.696E-01    0.588E-01
RMM:   5    -0.929288130254E+02   -0.24997E-03   -0.10870E-02  8633   0.280E-01    0.480E-01
RMM:   6    -0.929289545896E+02   -0.14156E-03   -0.48812E-03  8480   0.161E-01    0.182E-01
RMM:   7    -0.929292800635E+02   -0.32547E-03   -0.27866E-03  7429   0.125E-01    0.229E-01
RMM:   8    -0.929292468481E+02    0.33215E-04   -0.12166E-03  7316   0.815E-02    0.116E-01
RMM:   9    -0.929292892922E+02   -0.42444E-04   -0.12668E-03  7565   0.670E-02    0.887E-02
RMM:  10    -0.929293165115E+02   -0.27219E-04   -0.51982E-04  6850   0.477E-02    0.469E-02
RMM:  11    -0.929293567972E+02   -0.40286E-04   -0.29607E-04  6536   0.282E-02    0.665E-02
RMM:  12    -0.929293602040E+02   -0.34067E-05   -0.18735E-04  5967   0.237E-02    0.140E-02
RMM:  13    -0.929293719631E+02   -0.11759E-04   -0.10482E-04  5206   0.159E-02    0.101E-02
RMM:  14    -0.929293806781E+02   -0.87151E-05   -0.68998E-05  4716   0.130E-02
  27 F= -.96059983E+02 E0= -.96051189E+02  d E =-.971881E-01
       N       E                     dE             d eps       ncg     rms          rms(c)
DAV:   1    -0.922864872516E+02    0.64288E+00   -0.14002E+02  5456   0.314E+01    0.353E+00
RMM:   2    -0.927536957151E+02   -0.46721E+00   -0.51197E+00  6227   0.761E+00    0.139E+00
RMM:   3    -0.929791698807E+02   -0.22547E+00   -0.16416E+00  7986   0.404E+00    0.227E+00
RMM:   4    -0.929158598338E+02    0.63310E-01   -0.22552E-01  8621   0.148E+00    0.151E+00
RMM:   5    -0.929214429364E+02   -0.55831E-02   -0.44716E-02  8523   0.570E-01    0.128E+00
RMM:   6    -0.929216434005E+02   -0.20046E-03   -0.22674E-02  8561   0.344E-01    0.499E-01
RMM:   7    -0.929212480743E+02    0.39533E-03   -0.13828E-02  7909   0.260E-01    0.696E-01
RMM:   8    -0.929207454217E+02    0.50265E-03   -0.54101E-03  7036   0.213E-01    0.331E-01
RMM:   9    -0.929208991112E+02   -0.15369E-03   -0.63110E-03  7384   0.159E-01    0.287E-01
RMM:  10    -0.929208912965E+02    0.78148E-05   -0.20029E-03  7165   0.106E-01    0.381E-02
RMM:  11    -0.929210879963E+02   -0.19670E-03   -0.14146E-03  7926   0.689E-02    0.155E-01
RMM:  12    -0.929210982726E+02   -0.10276E-04   -0.69104E-04  6883   0.481E-02    0.346E-02
RMM:  13    -0.929211456246E+02   -0.47352E-04   -0.43105E-04  6639   0.325E-02    0.133E-02
RMM:  14    -0.929211806285E+02   -0.35004E-04   -0.25756E-04  6028   0.248E-02    0.832E-03
RMM:  15    -0.929212043633E+02   -0.23735E-04   -0.17641E-04  5530   0.192E-02    0.336E-03
RMM:  16    -0.929212176009E+02   -0.13238E-04   -0.10960E-04  5021   0.156E-02    0.376E-03
RMM:  17    -0.929212253510E+02   -0.77501E-05   -0.78881E-05  4459   0.124E-02
  28 F= -.96040724E+02 E0= -.96033879E+02  d E =-.779287E-01
       N       E                     dE             d eps       ncg     rms          rms(c)
DAV:   1    -0.927306943418E+02    0.19052E+00   -0.54879E+01  5448   0.192E+01    0.170E+00
RMM:   2    -0.928930145660E+02   -0.16232E+00   -0.17421E+00  6130   0.422E+00    0.887E-01
RMM:   3    -0.929648774744E+02   -0.71863E-01   -0.52648E-01  8228   0.247E+00    0.110E+00
RMM:   4    -0.929408078748E+02    0.24070E-01   -0.70551E-02  8200   0.830E-01    0.651E-01
RMM:   5    -0.929416463327E+02   -0.83846E-03   -0.14302E-02  8766   0.326E-01    0.478E-01
RMM:   6    -0.929420462121E+02   -0.39988E-03   -0.66004E-03  8283   0.184E-01    0.231E-01
RMM:   7    -0.929422277854E+02   -0.18157E-03   -0.29324E-03  7262   0.133E-01    0.175E-01
RMM:   8    -0.929421787744E+02    0.49011E-04   -0.16398E-03  7092   0.946E-02    0.673E-02
RMM:   9    -0.929422563372E+02   -0.77563E-04   -0.98729E-04  7689   0.585E-02    0.510E-02
RMM:  10    -0.929422879008E+02   -0.31564E-04   -0.45518E-04  6517   0.401E-02    0.126E-02
RMM:  11    -0.929423213766E+02   -0.33476E-04   -0.30221E-04  6065   0.262E-02    0.177E-02
RMM:  12    -0.929423385183E+02   -0.17142E-04   -0.15668E-04  5541   0.196E-02    0.668E-03
RMM:  13    -0.929423521519E+02   -0.13634E-04   -0.10679E-04  5138   0.150E-02    0.479E-03
RMM:  14    -0.929423605596E+02   -0.84078E-05   -0.65968E-05  4708   0.119E-02
  29 F= -.96068708E+02 E0= -.96060754E+02  d E =-.105912E+00
       N       E                     dE             d eps       ncg     rms          rms(c)
DAV:   1    -0.929478739348E+02   -0.55218E-02   -0.19007E-01  5944   0.111E+00    0.934E-02
RMM:   2    -0.929484094200E+02   -0.53549E-03   -0.60642E-03  5852   0.244E-01    0.573E-02
RMM:   3    -0.929485766027E+02   -0.16718E-03   -0.14947E-03  7490   0.130E-01    0.504E-02
RMM:   4    -0.929485519914E+02    0.24611E-04   -0.24596E-04  6990   0.471E-02    0.477E-02
RMM:   5    -0.929485425049E+02    0.94865E-05   -0.51329E-05  5390   0.222E-02
  30 F= -.96074503E+02 E0= -.96066565E+02  d E =-.579559E-02
       N       E                     dE             d eps       ncg     rms          rms(c)
DAV:   1    -0.929553083560E+02   -0.67564E-02   -0.17013E+00  5576   0.331E+00    0.296E-01
RMM:   2    -0.929600359821E+02   -0.47276E-02   -0.54894E-02  6107   0.753E-01    0.174E-01
RMM:   3    -0.929614810764E+02   -0.14451E-02   -0.13526E-02  7961   0.395E-01    0.150E-01
RMM:   4    -0.929613951078E+02    0.85969E-04   -0.21674E-03  7956   0.141E-01    0.150E-01
RMM:   5    -0.929612779224E+02    0.11719E-03   -0.49158E-04  7777   0.604E-02    0.100E-01
RMM:   6    -0.929612809468E+02   -0.30244E-05   -0.28786E-04  6326   0.392E-02    0.384E-02
RMM:   7    -0.929612753155E+02    0.56312E-05   -0.16363E-04  5766   0.291E-02    0.320E-02
RMM:   8    -0.929612768712E+02   -0.15556E-05   -0.79321E-05  5219   0.172E-02
  31 F= -.96086082E+02 E0= -.96078172E+02  d E =-.173744E-01
       N       E                     dE             d eps       ncg     rms          rms(c)
DAV:   1    -0.929341460230E+02    0.27129E-01   -0.68310E+00  5448   0.671E+00    0.602E-01
RMM:   2    -0.929542486984E+02   -0.20103E-01   -0.22868E-01  6155   0.150E+00    0.351E-01
RMM:   3    -0.929603146441E+02   -0.60659E-02   -0.55589E-02  8186   0.826E-01    0.303E-01
RMM:   4    -0.929596839834E+02    0.63066E-03   -0.91776E-03  8238   0.285E-01    0.301E-01
RMM:   5    -0.929592650890E+02    0.41889E-03   -0.19842E-03  8338   0.120E-01    0.197E-01
RMM:   6    -0.929592587490E+02    0.63400E-05   -0.12994E-03  7460   0.789E-02    0.712E-02
RMM:   7    -0.929592425177E+02    0.16231E-04   -0.61326E-04  6748   0.550E-02    0.645E-02
RMM:   8    -0.929592475952E+02   -0.50775E-05   -0.31041E-04  6299   0.337E-02    0.253E-02
RMM:   9    -0.929592727177E+02   -0.25122E-04   -0.18547E-04  5804   0.246E-02    0.108E-02
RMM:  10    -0.929592962125E+02   -0.23495E-04   -0.89222E-05  5165   0.160E-02    0.541E-03
RMM:  11    -0.929593216388E+02   -0.25426E-04   -0.61906E-05  4674   0.122E-02    0.435E-03
RMM:  12    -0.929593535759E+02   -0.31937E-04   -0.39058E-05  4424   0.987E-03    0.414E-03
RMM:  13    -0.929593650296E+02   -0.11454E-04   -0.23743E-05  3715   0.792E-03    0.225E-03
RMM:  14    -0.929593830544E+02   -0.18025E-04   -0.19297E-05  3219   0.700E-03    0.186E-03
RMM:  15    -0.929593874274E+02   -0.43729E-05   -0.11216E-05  2660   0.601E-03
  32 F= -.96081894E+02 E0= -.96074083E+02  d E =-.131864E-01
       N       E                     dE             d eps       ncg     rms          rms(c)
DAV:   1    -0.929555881253E+02    0.37949E-02   -0.26647E+00  5448   0.415E+00    0.350E-01
RMM:   2    -0.929630014418E+02   -0.74133E-02   -0.86582E-02  6127   0.927E-01    0.212E-01
RMM:   3    -0.929652855706E+02   -0.22841E-02   -0.21182E-02  7857   0.487E-01    0.199E-01
RMM:   4    -0.929650977480E+02    0.18782E-03   -0.32448E-03  7977   0.172E-01    0.188E-01
RMM:   5    -0.929649587102E+02    0.13904E-03   -0.70422E-04  7877   0.718E-02    0.131E-01
RMM:   6    -0.929649901655E+02   -0.31455E-04   -0.45859E-04  6569   0.483E-02    0.512E-02
RMM:   7    -0.929649777942E+02    0.12371E-04   -0.23666E-04  6032   0.344E-02    0.522E-02
RMM:   8    -0.929649730401E+02    0.47541E-05   -0.11447E-04  5584   0.206E-02    0.211E-02
RMM:   9    -0.929649839033E+02   -0.10863E-04   -0.74985E-05  4996   0.160E-02    0.800E-03
RMM:  10    -0.929649945619E+02   -0.10659E-04   -0.32870E-05  4144   0.104E-02    0.567E-03
RMM:  11    -0.929650037677E+02   -0.92058E-05   -0.18618E-05  3730   0.797E-03
  33 F= -.96088944E+02 E0= -.96081069E+02  d E =-.202367E-01
       N       E                     dE             d eps       ncg     rms          rms(c)
DAV:   1    -0.929650542356E+02   -0.59674E-04   -0.23761E-03  6136   0.126E-01    0.119E-02
RMM:   2    -0.929650634039E+02   -0.91683E-05   -0.73980E-05  5081   0.284E-02
  34 F= -.96088961E+02 E0= -.96081087E+02  d E =-.202533E-01
       N       E                     dE             d eps       ncg     rms          rms(c)
DAV:   1    -0.929650434106E+02    0.10825E-04   -0.58675E-04  5912   0.676E-02    0.867E-03
RMM:   2    -0.929650508432E+02   -0.74326E-05   -0.24306E-05  3553   0.158E-02
  35 F= -.96088970E+02 E0= -.96081085E+02  d E =-.202626E-01
       N       E                     dE             d eps       ncg     rms          rms(c)
DAV:   1    -0.929650586687E+02   -0.15258E-04   -0.15919E-04  6952   0.493E-02    0.483E-03
RMM:   2    -0.929650618228E+02   -0.31541E-05   -0.12209E-05  2912   0.124E-02
  36 F= -.96088970E+02 E0= -.96081092E+02  d E =-.202622E-01
       N       E                     dE             d eps       ncg     rms          rms(c)
DAV:   1    -0.929654858060E+02   -0.42714E-03   -0.33561E-03  5720   0.133E-01    0.126E-02
RMM:   2    -0.929654944388E+02   -0.86328E-05   -0.71330E-05  4796   0.269E-02
  37 F= -.96089361E+02 E0= -.96081478E+02  d E =-.391668E-03
       N       E                     dE             d eps       ncg     rms          rms(c)
DAV:   1    -0.929667096845E+02   -0.12239E-02   -0.30302E-02  5632   0.396E-01    0.407E-02
RMM:   2    -0.929667783339E+02   -0.68649E-04   -0.62684E-04  5833   0.778E-02    0.303E-02
RMM:   3    -0.929667872663E+02   -0.89325E-05   -0.15994E-04  6540   0.425E-02    0.300E-02
RMM:   4    -0.929667787814E+02    0.84849E-05   -0.28110E-05  3776   0.182E-02
  38 F= -.96090523E+02 E0= -.96082625E+02  d E =-.155319E-02
       N       E                     dE             d eps       ncg     rms          rms(c)
DAV:   1    -0.929690036787E+02   -0.22164E-02   -0.12023E-01  5464   0.786E-01    0.742E-02
RMM:   2    -0.929692327293E+02   -0.22905E-03   -0.23969E-03  5847   0.155E-01    0.466E-02
RMM:   3    -0.929693317536E+02   -0.99024E-04   -0.63477E-04  7546   0.840E-02    0.561E-02
RMM:   4    -0.929692797092E+02    0.52044E-04   -0.93327E-05  6180   0.298E-02    0.288E-02
RMM:   5    -0.929692854217E+02   -0.57125E-05   -0.34358E-05  4100   0.161E-02
  39 F= -.96092784E+02 E0= -.96084866E+02  d E =-.381441E-02
       N       E                     dE             d eps       ncg     rms          rms(c)
DAV:   1    -0.929729160964E+02   -0.36364E-02   -0.48103E-01  5440   0.157E+00    0.150E-01
RMM:   2    -0.929737943699E+02   -0.87827E-03   -0.96255E-03  5994   0.310E-01    0.862E-02
RMM:   3    -0.929741629038E+02   -0.36853E-03   -0.25175E-03  7776   0.169E-01    0.948E-02
RMM:   4    -0.929740228748E+02    0.14003E-03   -0.35269E-04  7237   0.579E-02    0.548E-02
RMM:   5    -0.929740341511E+02   -0.11276E-04   -0.11473E-04  6030   0.288E-02    0.416E-02
RMM:   6    -0.929740414462E+02   -0.72951E-05   -0.57913E-05  4744   0.174E-02
  40 F= -.96097050E+02 E0= -.96089039E+02  d E =-.808043E-02
       N       E                     dE             d eps       ncg     rms          rms(c)
DAV:   1    -0.929780272708E+02   -0.39931E-02   -0.19240E+00  5440   0.313E+00    0.300E-01
RMM:   2    -0.929815820204E+02   -0.35547E-02   -0.38786E-02  6088   0.616E-01    0.168E-01
RMM:   3    -0.929829575475E+02   -0.13755E-02   -0.99038E-03  8079   0.338E-01    0.177E-01
RMM:   4    -0.929825120736E+02    0.44547E-03   -0.13761E-03  7673   0.113E-01    0.108E-01
RMM:   5    -0.929825307061E+02   -0.18633E-04   -0.39761E-04  7602   0.528E-02    0.805E-02
RMM:   6    -0.929825498944E+02   -0.19188E-04   -0.18404E-04  6147   0.315E-02    0.271E-02
RMM:   7    -0.929825576295E+02   -0.77352E-05   -0.10245E-04  5294   0.214E-02    0.140E-02
RMM:   8    -0.929825622682E+02   -0.46387E-05   -0.56789E-05  4701   0.140E-02
  41 F= -.96104571E+02 E0= -.96096437E+02  d E =-.156017E-01
       N       E                     dE             d eps       ncg     rms          rms(c)
DAV:   1    -0.929772235173E+02    0.53341E-02   -0.76979E+00  5440   0.624E+00    0.611E-01
RMM:   2    -0.929917072653E+02   -0.14484E-01   -0.15900E-01  6175   0.124E+00    0.332E-01
RMM:   3    -0.929966643139E+02   -0.49570E-02   -0.40127E-02  8202   0.692E-01    0.327E-01
RMM:   4    -0.929955612348E+02    0.11031E-02   -0.56051E-03  7971   0.228E-01    0.228E-01
RMM:   5    -0.929955340387E+02    0.27196E-04   -0.14156E-03  8272   0.103E-01    0.167E-01
RMM:   6    -0.929956063624E+02   -0.72324E-04   -0.72358E-04  7419   0.622E-02    0.529E-02
RMM:   7    -0.929956203112E+02   -0.13949E-04   -0.34722E-04  6378   0.401E-02    0.350E-02
RMM:   8    -0.929956364894E+02   -0.16178E-04   -0.20778E-04  5829   0.263E-02    0.988E-03
RMM:   9    -0.929956471640E+02   -0.10675E-04   -0.12096E-04  5312   0.184E-02    0.134E-02
RMM:  10    -0.929956536310E+02   -0.64670E-05   -0.63541E-05  4751   0.129E-02
  42 F= -.96115721E+02 E0= -.96107312E+02  d E =-.267510E-01
       N       E                     dE             d eps       ncg     rms          rms(c)
DAV:   1    -0.929276962993E+02    0.67951E-01   -0.30710E+01  5440   0.124E+01    0.139E+00
RMM:   2    -0.929900413803E+02   -0.62345E-01   -0.68768E-01  6205   0.253E+00    0.661E-01
RMM:   3    -0.930075546230E+02   -0.17513E-01   -0.17081E-01  8218   0.141E+00    0.602E-01
RMM:   4    -0.930071684956E+02    0.38613E-03   -0.24062E-02  8017   0.464E-01    0.516E-01
RMM:   5    -0.930059176573E+02    0.12508E-02   -0.53143E-03  8587   0.208E-01    0.367E-01
RMM:   6    -0.930062552250E+02   -0.33757E-03   -0.33256E-03  8209   0.127E-01    0.113E-01
RMM:   7    -0.930062751613E+02   -0.19936E-04   -0.12320E-03  7242   0.822E-02    0.996E-02
RMM:   8    -0.930063157357E+02   -0.40574E-04   -0.72202E-04  7037   0.536E-02    0.271E-02
RMM:   9    -0.930063517163E+02   -0.35981E-04   -0.44292E-04  6313   0.353E-02    0.297E-02
RMM:  10    -0.930063737435E+02   -0.22027E-04   -0.22518E-04  5917   0.272E-02    0.137E-02
RMM:  11    -0.930063928339E+02   -0.19090E-04   -0.15612E-04  5431   0.185E-02    0.965E-03
RMM:  12    -0.930064055918E+02   -0.12758E-04   -0.94755E-05  4968   0.143E-02    0.583E-03
RMM:  13    -0.930064149963E+02   -0.94045E-05   -0.63009E-05  4601   0.114E-02
  43 F= -.96122700E+02 E0= -.96113752E+02  d E =-.337302E-01
       N       E                     dE             d eps       ncg     rms          rms(c)
DAV:   1    -0.930063471132E+02    0.58479E-04   -0.89373E-01  5768   0.171E+00    0.198E-01
RMM:   2    -0.930075258009E+02   -0.11787E-02   -0.16393E-02  5757   0.302E-01    0.132E-01
RMM:   3    -0.930078752614E+02   -0.34946E-03   -0.31100E-03  7465   0.156E-01    0.127E-01
RMM:   4    -0.930076762268E+02    0.19903E-03   -0.50330E-04  6905   0.560E-02    0.967E-02
RMM:   5    -0.930076714150E+02    0.48118E-05   -0.14267E-04  5463   0.288E-02    0.500E-02
RMM:   6    -0.930076725874E+02   -0.11724E-05   -0.11780E-04  4964   0.220E-02    0.177E-02
RMM:   7    -0.930076757439E+02   -0.31566E-05   -0.45990E-05  4559   0.135E-02
  44 F= -.96123260E+02 E0= -.96114429E+02  d E =-.560313E-03
       N       E                     dE             d eps       ncg     rms          rms(c)
DAV:   1    -0.930079299874E+02   -0.25740E-03   -0.16526E-01  5752   0.740E-01    0.822E-02
RMM:   2    -0.930081572249E+02   -0.22724E-03   -0.30060E-03  5479   0.129E-01    0.576E-02
RMM:   3    -0.930082337138E+02   -0.76489E-04   -0.54010E-04  6620   0.663E-02    0.525E-02
RMM:   4    -0.930081904872E+02    0.43227E-04   -0.92812E-05  5093   0.263E-02    0.339E-02
RMM:   5    -0.930081943707E+02   -0.38835E-05   -0.22784E-05  4181   0.133E-02
  45 F= -.96124080E+02 E0= -.96115208E+02  d E =-.137960E-02
       N       E                     dE             d eps       ncg     rms          rms(c)
DAV:   1    -0.930109645158E+02   -0.27740E-02   -0.37870E-01  5480   0.125E+00    0.138E-01
RMM:   2    -0.930117184041E+02   -0.75389E-03   -0.79338E-03  6150   0.237E-01    0.738E-02
RMM:   3    -0.930119995257E+02   -0.28112E-03   -0.15636E-03  7852   0.122E-01    0.940E-02
RMM:   4    -0.930118093419E+02    0.19018E-03   -0.23804E-04  7062   0.462E-02    0.385E-02
RMM:   5    -0.930118196055E+02   -0.10264E-04   -0.69338E-05  5756   0.228E-02    0.230E-02
RMM:   6    -0.930118243200E+02   -0.47145E-05   -0.33261E-05  4525   0.141E-02
  46 F= -.96127183E+02 E0= -.96118279E+02  d E =-.310313E-02
       N       E                     dE             d eps       ncg     rms          rms(c)
DAV:   1    -0.930136931240E+02   -0.18735E-02   -0.33998E+00  5440   0.375E+00    0.425E-01
RMM:   2    -0.930206239513E+02   -0.69308E-02   -0.72313E-02  6342   0.714E-01    0.224E-01
RMM:   3    -0.930231988130E+02   -0.25749E-02   -0.14126E-02  8420   0.373E-01    0.285E-01
RMM:   4    -0.930214436082E+02    0.17552E-02   -0.21290E-03  8181   0.137E-01    0.121E-01
RMM:   5    -0.930215193833E+02   -0.75775E-04   -0.60737E-04  7909   0.630E-02    0.711E-02
RMM:   6    -0.930215346184E+02   -0.15235E-04   -0.25324E-04  6682   0.371E-02    0.248E-02
RMM:   7    -0.930215506844E+02   -0.16066E-04   -0.13098E-04  5862   0.233E-02    0.934E-03
RMM:   8    -0.930215573554E+02   -0.66710E-05   -0.72945E-05  5133   0.160E-02
  47 F= -.96135348E+02 E0= -.96126399E+02  d E =-.112686E-01
       N       E                     dE             d eps       ncg     rms          rms(c)
DAV:   1    -0.930035739927E+02    0.17977E-01   -0.13588E+01  5440   0.749E+00    0.912E-01
RMM:   2    -0.930323948173E+02   -0.28821E-01   -0.30055E-01  6384   0.144E+00    0.451E-01
RMM:   3    -0.930430613397E+02   -0.10667E-01   -0.57226E-02  8453   0.742E-01    0.578E-01
RMM:   4    -0.930355405542E+02    0.75208E-02   -0.86299E-03  8329   0.275E-01    0.272E-01
RMM:   5    -0.930358355198E+02   -0.29497E-03   -0.23898E-03  8573   0.126E-01    0.163E-01
RMM:   6    -0.930358890305E+02   -0.53511E-04   -0.10922E-03  7948   0.756E-02    0.503E-02
RMM:   7    -0.930359374821E+02   -0.48452E-04   -0.47893E-04  7051   0.446E-02    0.194E-02
RMM:   8    -0.930359618187E+02   -0.24337E-04   -0.28193E-04  6571   0.307E-02    0.123E-02
RMM:   9    -0.930359787527E+02   -0.16934E-04   -0.15729E-04  5889   0.213E-02    0.935E-03
RMM:  10    -0.930359903179E+02   -0.11565E-04   -0.90551E-05  5383   0.160E-02    0.335E-03
RMM:  11    -0.930359983335E+02   -0.80157E-05   -0.56346E-05  4946   0.124E-02
  48 F= -.96146715E+02 E0= -.96137683E+02  d E =-.226353E-01
       N       E                     dE             d eps       ncg     rms          rms(c)
DAV:   1    -0.929001106528E+02    0.13588E+00   -0.54091E+01  5448   0.149E+01    0.229E+00
RMM:   2    -0.930318496532E+02   -0.13174E+00   -0.13780E+00  6388   0.298E+00    0.922E-01
RMM:   3    -0.930770425225E+02   -0.45193E-01   -0.24389E-01  8372   0.152E+00    0.123E+00
RMM:   4    -0.930447196237E+02    0.32323E-01   -0.38295E-02  8334   0.570E-01    0.737E-01
RMM:   5    -0.930450416225E+02   -0.32200E-03   -0.97099E-03  8822   0.259E-01    0.452E-01
RMM:   6    -0.930451634924E+02   -0.12187E-03   -0.58435E-03  8383   0.165E-01    0.133E-01
RMM:   7    -0.930453072125E+02   -0.14372E-03   -0.19200E-03  8174   0.954E-02    0.987E-02
RMM:   8    -0.930453569401E+02   -0.49728E-04   -0.12727E-03  7442   0.656E-02    0.284E-02
RMM:   9    -0.930454213596E+02   -0.64419E-04   -0.62756E-04  7025   0.428E-02    0.260E-02
RMM:  10    -0.930454606488E+02   -0.39289E-04   -0.35402E-04  6577   0.306E-02    0.105E-02
RMM:  11    -0.930454910059E+02   -0.30357E-04   -0.22054E-04  6188   0.231E-02    0.518E-03
RMM:  12    -0.930455118892E+02   -0.20883E-04   -0.14270E-04  5673   0.175E-02    0.383E-03
RMM:  13    -0.930455270705E+02   -0.15181E-04   -0.93452E-05  5233   0.140E-02    0.300E-03
RMM:  14    -0.930455435588E+02   -0.16488E-04   -0.61960E-05  4728   0.115E-02    0.167E-03
RMM:  15    -0.930455508315E+02   -0.72727E-05   -0.43946E-05  4086   0.964E-03
  49 F= -.96150465E+02 E0= -.96141309E+02  d E =-.263852E-01
       N       E                     dE             d eps       ncg     rms          rms(c)
DAV:   1    -0.930299869102E+02    0.15557E-01   -0.65434E+00  5440   0.517E+00    0.561E-01
RMM:   2    -0.930429807516E+02   -0.12994E-01   -0.13963E-01  6333   0.991E-01    0.299E-01
RMM:   3    -0.930476734571E+02   -0.46927E-02   -0.27639E-02  8027   0.507E-01    0.368E-01
RMM:   4    -0.930449225550E+02    0.27509E-02   -0.38523E-03  8155   0.184E-01    0.186E-01
RMM:   5    -0.930450237051E+02   -0.10115E-03   -0.95273E-04  8107   0.828E-02    0.106E-01
RMM:   6    -0.930450707010E+02   -0.46996E-04   -0.43935E-04  7081   0.488E-02    0.278E-02
RMM:   7    -0.930450824489E+02   -0.11748E-04   -0.16556E-04  6274   0.284E-02    0.166E-02
RMM:   8    -0.930450884649E+02   -0.60160E-05   -0.99234E-05  5685   0.198E-02
  50 F= -.96151995E+02 E0= -.96142879E+02  d E =-.279160E-01
       N       E                     dE             d eps       ncg     rms          rms(c)
DAV:   1    -0.930466274353E+02   -0.15450E-02   -0.25353E-01  5800   0.985E-01    0.107E-01
RMM:   2    -0.930470634094E+02   -0.43597E-03   -0.50613E-03  5843   0.182E-01    0.592E-02
RMM:   3    -0.930471972316E+02   -0.13382E-03   -0.95342E-04  7382   0.936E-02    0.612E-02
RMM:   4    -0.930471341497E+02    0.63082E-04   -0.15099E-04  5991   0.356E-02    0.362E-02
RMM:   5    -0.930471387782E+02   -0.46285E-05   -0.31272E-05  4395   0.170E-02
  51 F= -.96153650E+02 E0= -.96144576E+02  d E =-.165466E-02
       N       E                     dE             d eps       ncg     rms          rms(c)
DAV:   1    -0.930470255658E+02    0.10858E-03   -0.11208E+00  5472   0.207E+00    0.228E-01
RMM:   2    -0.930489795607E+02   -0.19540E-02   -0.22662E-02  6167   0.384E-01    0.124E-01
RMM:   3    -0.930494373069E+02   -0.45775E-03   -0.43201E-03  8008   0.196E-01    0.107E-01
RMM:   4    -0.930493704425E+02    0.66864E-04   -0.69345E-04  7615   0.721E-02    0.833E-02
RMM:   5    -0.930493569924E+02    0.13450E-04   -0.13475E-04  6387   0.323E-02    0.452E-02
RMM:   6    -0.930493770121E+02   -0.20020E-04   -0.89560E-05  5551   0.214E-02    0.135E-02
RMM:   7    -0.930493816864E+02   -0.46743E-05   -0.36326E-05  4491   0.130E-02
  52 F= -.96155066E+02 E0= -.96146051E+02  d E =-.307062E-02
       N       E                     dE             d eps       ncg     rms          rms(c)
DAV:   1    -0.930498340222E+02   -0.45701E-03   -0.12938E-02  6072   0.233E-01    0.207E-02
RMM:   2    -0.930498567333E+02   -0.22711E-04   -0.22824E-04  5530   0.451E-02    0.117E-02
RMM:   3    -0.930498660527E+02   -0.93194E-05   -0.68618E-05  4648   0.255E-02
  53 F= -.96155451E+02 E0= -.96146420E+02  d E =-.385349E-03
       N       E                     dE             d eps       ncg     rms          rms(c)
DAV:   1    -0.930510423735E+02   -0.11856E-02   -0.11602E-01  5592   0.699E-01    0.601E-02
RMM:   2    -0.930512232541E+02   -0.18088E-03   -0.19686E-03  5691   0.131E-01    0.365E-02
RMM:   3    -0.930513041676E+02   -0.80913E-04   -0.55619E-04  7021   0.733E-02    0.435E-02
RMM:   4    -0.930512708826E+02    0.33285E-04   -0.66964E-05  5318   0.240E-02    0.252E-02
RMM:   5    -0.930512755439E+02   -0.46614E-05   -0.20440E-05  3653   0.128E-02
  54 F= -.96156565E+02 E0= -.96147535E+02  d E =-.149868E-02
       N       E                     dE             d eps       ncg     rms          rms(c)
DAV:   1    -0.930530662228E+02   -0.17953E-02   -0.46167E-01  5512   0.139E+00    0.124E-01
RMM:   2    -0.930537697276E+02   -0.70350E-03   -0.77137E-03  5786   0.261E-01    0.666E-02
RMM:   3    -0.930539786791E+02   -0.20895E-03   -0.21578E-03  7413   0.144E-01    0.477E-02
RMM:   4    -0.930540004622E+02   -0.21783E-04   -0.23132E-04  6530   0.431E-02    0.440E-02
RMM:   5    -0.930539868505E+02    0.13612E-04   -0.67386E-05  5029   0.211E-02    0.328E-02
RMM:   6    -0.930539987033E+02   -0.11853E-04   -0.37200E-05  4253   0.145E-02    0.124E-02
RMM:   7    -0.930539991425E+02   -0.43916E-06   -0.20328E-05  3819   0.109E-02
  55 F= -.96158700E+02 E0= -.96149628E+02  d E =-.363377E-02
       N       E                     dE             d eps       ncg     rms          rms(c)
DAV:   1    -0.930552639513E+02   -0.12652E-02   -0.18505E+00  5480   0.279E+00    0.247E-01
RMM:   2    -0.930581465712E+02   -0.28826E-02   -0.31448E-02  5932   0.522E-01    0.132E-01
RMM:   3    -0.930589565128E+02   -0.80994E-03   -0.85357E-03  7666   0.286E-01    0.967E-02
RMM:   4    -0.930590654700E+02   -0.10896E-03   -0.85400E-04  7198   0.836E-02    0.890E-02
RMM:   5    -0.930590013939E+02    0.64076E-04   -0.23010E-04  6746   0.401E-02    0.671E-02
RMM:   6    -0.930590311770E+02   -0.29783E-04   -0.12615E-04  5217   0.253E-02    0.309E-02
RMM:   7    -0.930590320233E+02   -0.84632E-06   -0.58384E-05  4685   0.175E-02
  56 F= -.96162571E+02 E0= -.96153442E+02  d E =-.750469E-02
       N       E                     dE             d eps       ncg     rms          rms(c)
DAV:   1    -0.930521077563E+02    0.69234E-02   -0.73929E+00  5448   0.557E+00    0.522E-01
RMM:   2    -0.930640509093E+02   -0.11943E-01   -0.12988E-01  5994   0.105E+00    0.264E-01
RMM:   3    -0.930672295510E+02   -0.31786E-02   -0.34375E-02  7858   0.577E-01    0.200E-01
RMM:   4    -0.930677345668E+02   -0.50502E-03   -0.34232E-03  7495   0.166E-01    0.184E-01
RMM:   5    -0.930674499177E+02    0.28465E-03   -0.86760E-04  7726   0.791E-02    0.137E-01
RMM:   6    -0.930675475773E+02   -0.97660E-04   -0.51774E-04  6598   0.485E-02    0.571E-02
RMM:   7    -0.930675506443E+02   -0.30670E-05   -0.19309E-04  5399   0.286E-02    0.427E-02
RMM:   8    -0.930675591454E+02   -0.85011E-05   -0.11252E-04  5020   0.183E-02    0.125E-02
RMM:   9    -0.930675636576E+02   -0.45122E-05   -0.64922E-05  4683   0.138E-02
  57 F= -.96168836E+02 E0= -.96159622E+02  d E =-.137697E-01
       N       E                     dE             d eps       ncg     rms          rms(c)
DAV:   1    -0.930137442239E+02    0.53815E-01   -0.29489E+01  5448   0.111E+01    0.124E+00
RMM:   2    -0.930650567156E+02   -0.51312E-01   -0.56038E-01  5984   0.217E+00    0.537E-01
RMM:   3    -0.930775287413E+02   -0.12472E-01   -0.14344E-01  7987   0.120E+00    0.461E-01
RMM:   4    -0.930794497948E+02   -0.19211E-02   -0.13813E-02  7641   0.336E-01    0.391E-01
RMM:   5    -0.930786106897E+02    0.83911E-03   -0.33653E-03  8155   0.161E-01    0.312E-01
RMM:   6    -0.930787670403E+02   -0.15635E-03   -0.22116E-03  7723   0.969E-02    0.118E-01
RMM:   7    -0.930787689166E+02   -0.18763E-05   -0.71441E-04  6665   0.580E-02    0.938E-02
RMM:   8    -0.930787904331E+02   -0.21516E-04   -0.41548E-04  6029   0.366E-02    0.309E-02
RMM:   9    -0.930788083791E+02   -0.17946E-04   -0.24852E-04  5370   0.252E-02    0.214E-02
RMM:  10    -0.930788217867E+02   -0.13408E-04   -0.12240E-04  4965   0.172E-02    0.133E-02
RMM:  11    -0.930788336673E+02   -0.11881E-04   -0.89403E-05  4670   0.131E-02    0.553E-03
RMM:  12    -0.930788435469E+02   -0.98796E-05   -0.49140E-05  4441   0.102E-02
  58 F= -.96175815E+02 E0= -.96166527E+02  d E =-.207491E-01
       N       E                     dE             d eps       ncg     rms          rms(c)
DAV:   1    -0.930696145012E+02    0.92192E-02   -0.59210E+00  5504   0.496E+00    0.457E-01
RMM:   2    -0.930787339517E+02   -0.91195E-02   -0.10013E-01  5981   0.935E-01    0.234E-01
RMM:   3    -0.930811203299E+02   -0.23864E-02   -0.26707E-02  7835   0.513E-01    0.158E-01
RMM:   4    -0.930813746571E+02   -0.25433E-03   -0.27971E-03  7590   0.149E-01    0.127E-01
RMM:   5    -0.930816020043E+02   -0.22735E-03   -0.70047E-04  7682   0.672E-02    0.978E-02
RMM:   6    -0.930815050145E+02    0.96990E-04   -0.33521E-04  6299   0.393E-02    0.432E-02
RMM:   7    -0.930815012175E+02    0.37970E-05   -0.15345E-04  5259   0.245E-02    0.253E-02
RMM:   8    -0.930815092277E+02   -0.80102E-05   -0.91675E-05  4944   0.163E-02
  59 F= -.96176590E+02 E0= -.96167325E+02  d E =-.215243E-01
       N       E                     dE             d eps       ncg     rms          rms(c)
DAV:   1    -0.930763319024E+02    0.51693E-02   -0.30951E+00  5456   0.358E+00    0.379E-01
RMM:   2    -0.930830541419E+02   -0.67222E-02   -0.77818E-02  6445   0.702E-01    0.228E-01
RMM:   3    -0.930843310985E+02   -0.12770E-02   -0.12501E-02  8346   0.353E-01    0.187E-01
RMM:   4    -0.930842148253E+02    0.11627E-03   -0.26404E-03  8113   0.135E-01    0.132E-01
RMM:   5    -0.930840659646E+02    0.14886E-03   -0.63452E-04  7574   0.627E-02    0.612E-02
RMM:   6    -0.930840996603E+02   -0.33696E-04   -0.33856E-04  6466   0.380E-02    0.195E-02
RMM:   7    -0.930841114042E+02   -0.11744E-04   -0.14632E-04  5779   0.230E-02    0.124E-02
RMM:   8    -0.930841208095E+02   -0.94053E-05   -0.80698E-05  5097   0.160E-02
  60 F= -.96176901E+02 E0= -.96167518E+02  d E =-.310636E-03
       N       E                     dE             d eps       ncg     rms          rms(c)
DAV:   1    -0.930824772172E+02    0.16342E-02   -0.66091E-01  5712   0.164E+00    0.174E-01
RMM:   2    -0.930838400687E+02   -0.13629E-02   -0.16282E-02  6196   0.326E-01    0.104E-01
RMM:   3    -0.930841233186E+02   -0.28325E-03   -0.26496E-03  7780   0.160E-01    0.903E-02
RMM:   4    -0.930841011673E+02    0.22151E-04   -0.55973E-04  7187   0.636E-02    0.687E-02
RMM:   5    -0.930840940021E+02    0.71651E-05   -0.11320E-04  5937   0.295E-02    0.360E-02
RMM:   6    -0.930841127573E+02   -0.18755E-04   -0.63233E-05  5247   0.191E-02    0.117E-02
RMM:   7    -0.930841131282E+02   -0.37089E-06   -0.22601E-05  4198   0.109E-02
  61 F= -.96177956E+02 E0= -.96168623E+02  d E =-.136585E-02
       N       E                     dE             d eps       ncg     rms          rms(c)
DAV:   1    -0.930849994689E+02   -0.88671E-03   -0.64999E-02  5832   0.531E-01    0.555E-02
RMM:   2    -0.930851366132E+02   -0.13714E-03   -0.16151E-03  5966   0.105E-01    0.316E-02
RMM:   3    -0.930851607898E+02   -0.24177E-04   -0.24396E-04  6739   0.514E-02    0.201E-02
RMM:   4    -0.930851727814E+02   -0.11992E-04   -0.66168E-05  5124   0.231E-02    0.195E-02
RMM:   5    -0.930851651869E+02    0.75945E-05   -0.12402E-05  3483   0.110E-02
  62 F= -.96178660E+02 E0= -.96169326E+02  d E =-.703331E-03
       N       E                     dE             d eps       ncg     rms          rms(c)
DAV:   1    -0.930865549026E+02   -0.13821E-02   -0.58750E-01  5504   0.160E+00    0.164E-01
RMM:   2    -0.930878635736E+02   -0.13087E-02   -0.15016E-02  6294   0.318E-01    0.953E-02
RMM:   3    -0.930880690165E+02   -0.20544E-03   -0.24067E-03  7980   0.155E-01    0.587E-02
RMM:   4    -0.930881073635E+02   -0.38347E-04   -0.43526E-04  7369   0.590E-02    0.278E-02
RMM:   5    -0.930881393622E+02   -0.31999E-04   -0.10106E-04  6216   0.280E-02    0.282E-02
RMM:   6    -0.930881247270E+02    0.14635E-04   -0.56761E-05  4913   0.154E-02    0.102E-02
RMM:   7    -0.930881273998E+02   -0.26728E-05   -0.28206E-05  4057   0.103E-02
  63 F= -.96180577E+02 E0= -.96171220E+02  d E =-.262068E-02
       N       E                     dE             d eps       ncg     rms          rms(c)
DAV:   1    -0.930868596480E+02    0.12651E-02   -0.23499E+00  5440   0.319E+00    0.333E-01
RMM:   2    -0.930921582563E+02   -0.52986E-02   -0.60489E-02  6445   0.634E-01    0.189E-01
RMM:   3    -0.930929953636E+02   -0.83711E-03   -0.96607E-03  8208   0.310E-01    0.120E-01
RMM:   4    -0.930931399840E+02   -0.14462E-03   -0.17367E-03  8002   0.117E-01    0.572E-02
RMM:   5    -0.930932619058E+02   -0.12192E-03   -0.38847E-04  7555   0.514E-02    0.567E-02
RMM:   6    -0.930931976251E+02    0.64281E-04   -0.19867E-04  6406   0.286E-02    0.198E-02
RMM:   7    -0.930932081773E+02   -0.10552E-04   -0.99614E-05  5648   0.186E-02    0.893E-03
RMM:   8    -0.930932142364E+02   -0.60590E-05   -0.54694E-05  4794   0.128E-02
  64 F= -.96183580E+02 E0= -.96174201E+02  d E =-.562339E-02
       N       E                     dE             d eps       ncg     rms          rms(c)
DAV:   1    -0.930742046185E+02    0.19004E-01   -0.93781E+00  5440   0.636E+00    0.708E-01
RMM:   2    -0.930959553878E+02   -0.21751E-01   -0.24699E-01  6514   0.127E+00    0.375E-01
RMM:   3    -0.930992680966E+02   -0.33127E-02   -0.39001E-02  8421   0.622E-01    0.262E-01
RMM:   4    -0.931001195624E+02   -0.85147E-03   -0.70528E-03  8387   0.232E-01    0.158E-01
RMM:   5    -0.931002361220E+02   -0.11656E-03   -0.15028E-03  8411   0.102E-01    0.128E-01
RMM:   6    -0.931000200437E+02    0.21608E-03   -0.75095E-04  7620   0.578E-02    0.352E-02
RMM:   7    -0.931000651530E+02   -0.45109E-04   -0.38379E-04  6791   0.368E-02    0.143E-02
RMM:   8    -0.931000841130E+02   -0.18960E-04   -0.19434E-04  6208   0.248E-02    0.102E-02
RMM:   9    -0.931000954104E+02   -0.11297E-04   -0.10961E-04  5644   0.173E-02    0.709E-03
RMM:  10    -0.931001019342E+02   -0.65237E-05   -0.61103E-05  5018   0.134E-02
  65 F= -.96186317E+02 E0= -.96176931E+02  d E =-.836079E-02
       N       E                     dE             d eps       ncg     rms          rms(c)
DAV:   1    -0.931002207964E+02   -0.12539E-03   -0.18680E-01  5808   0.895E-01    0.898E-02
RMM:   2    -0.931006403761E+02   -0.41958E-03   -0.48100E-03  6334   0.178E-01    0.529E-02
RMM:   3    -0.931007081398E+02   -0.67764E-04   -0.78222E-04  7816   0.872E-02    0.328E-02
RMM:   4    -0.931007238971E+02   -0.15757E-04   -0.16281E-04  6324   0.348E-02    0.148E-02
RMM:   5    -0.931007309956E+02   -0.70985E-05   -0.52953E-05  4890   0.177E-02
  66 F= -.96186362E+02 E0= -.96176987E+02  d E =-.840590E-02
       N       E                     dE             d eps       ncg     rms          rms(c)
DAV:   1    -0.931009882082E+02   -0.26431E-03   -0.27686E-02  5928   0.342E-01    0.316E-02
RMM:   2    -0.931010369601E+02   -0.48752E-04   -0.55351E-04  6000   0.668E-02    0.196E-02
RMM:   3    -0.931010554071E+02   -0.18447E-04   -0.12860E-04  6088   0.356E-02    0.184E-02
RMM:   4    -0.931010498470E+02    0.55601E-05   -0.35257E-05  4025   0.172E-02
  67 F= -.96186507E+02 E0= -.96177135E+02  d E =-.145084E-03
       N       E                     dE             d eps       ncg     rms          rms(c)
DAV:   1    -0.931013492115E+02   -0.29380E-03   -0.24918E-01  5536   0.102E+00    0.974E-02
RMM:   2    -0.931017784416E+02   -0.42923E-03   -0.48168E-03  5941   0.194E-01    0.564E-02
RMM:   3    -0.931019201475E+02   -0.14171E-03   -0.98500E-04  7578   0.102E-01    0.611E-02
RMM:   4    -0.931018567976E+02    0.63350E-04   -0.15297E-04  6513   0.363E-02    0.334E-02
RMM:   5    -0.931018646197E+02   -0.78221E-05   -0.39976E-05  4755   0.182E-02
  68 F= -.96186800E+02 E0= -.96177439E+02  d E =-.438160E-03
       N       E                     dE             d eps       ncg     rms          rms(c)
DAV:   1    -0.931008637650E+02    0.99303E-03   -0.99521E-01  5456   0.204E+00    0.195E-01
RMM:   2    -0.931025998231E+02   -0.17361E-02   -0.19218E-02  6054   0.387E-01    0.110E-01
RMM:   3    -0.931031602288E+02   -0.56041E-03   -0.39616E-03  7982   0.207E-01    0.117E-01
RMM:   4    -0.931029201350E+02    0.24009E-03   -0.57683E-04  7510   0.700E-02    0.638E-02
RMM:   5    -0.931029336010E+02   -0.13466E-04   -0.13864E-04  6349   0.319E-02    0.398E-02
RMM:   6    -0.931029494001E+02   -0.15799E-04   -0.79910E-05  5226   0.206E-02    0.976E-03
RMM:   7    -0.931029526801E+02   -0.32800E-05   -0.35978E-05  4394   0.125E-02
  69 F= -.96186843E+02 E0= -.96177477E+02  d E =-.481167E-03
       N       E                     dE             d eps       ncg     rms          rms(c)
DAV:   1    -0.931022037803E+02    0.74562E-03   -0.18551E-01  5520   0.875E-01    0.852E-02
RMM:   2    -0.931025127170E+02   -0.30894E-03   -0.34932E-03  5848   0.167E-01    0.477E-02
RMM:   3    -0.931026278968E+02   -0.11518E-03   -0.71967E-04  7161   0.865E-02    0.542E-02
RMM:   4    -0.931025730260E+02    0.54871E-04   -0.10407E-04  6008   0.309E-02    0.279E-02
RMM:   5    -0.931025781637E+02   -0.51377E-05   -0.20169E-05  3840   0.149E-02
  70 F= -.96186920E+02 E0= -.96177537E+02  d E =-.558318E-03
       N       E                     dE             d eps       ncg     rms          rms(c)
DAV:   1    -0.931026520599E+02   -0.79034E-04   -0.15225E-03  5992   0.841E-02    0.682E-03
RMM:   2    -0.931026552790E+02   -0.32191E-05   -0.34519E-05  3434   0.166E-02
  71 F= -.96186959E+02 E0= -.96177587E+02  d E =-.389420E-04
       N       E                     dE             d eps       ncg     rms          rms(c)
DAV:   1    -0.931028419011E+02   -0.18984E-03   -0.13120E-02  5632   0.235E-01    0.232E-02
RMM:   2    -0.931028648157E+02   -0.22915E-04   -0.24649E-04  5481   0.444E-02    0.144E-02
RMM:   3    -0.931028701870E+02   -0.53713E-05   -0.52931E-05  4512   0.242E-02
  72 F= -.96187060E+02 E0= -.96177720E+02  d E =-.139314E-03
       N       E                     dE             d eps       ncg     rms          rms(c)
DAV:   1    -0.931031747835E+02   -0.30997E-03   -0.52301E-02  5552   0.472E-01    0.461E-02
RMM:   2    -0.931032601057E+02   -0.85322E-04   -0.98286E-04  5809   0.905E-02    0.268E-02
RMM:   3    -0.931032938690E+02   -0.33763E-04   -0.21876E-04  6819   0.492E-02    0.302E-02
RMM:   4    -0.931032795067E+02    0.14362E-04   -0.38302E-05  4353   0.190E-02    0.155E-02
RMM:   5    -0.931032822245E+02   -0.27178E-05   -0.10895E-05  3269   0.112E-02
  73 F= -.96187243E+02 E0= -.96177889E+02  d E =-.322185E-03
       N       E                     dE             d eps       ncg     rms          rms(c)
DAV:   1    -0.931036495941E+02   -0.37009E-03   -0.20897E-01  5488   0.934E-01    0.877E-02
RMM:   2    -0.931039926024E+02   -0.34301E-03   -0.38647E-03  5862   0.177E-01    0.478E-02
RMM:   3    -0.931041003387E+02   -0.10774E-03   -0.82596E-04  7502   0.943E-02    0.470E-02
RMM:   4    -0.931040687769E+02    0.31562E-04   -0.12022E-04  6287   0.329E-02    0.295E-02
RMM:   5    -0.931040729659E+02   -0.41890E-05   -0.28586E-05  4348   0.160E-02
  74 F= -.96187575E+02 E0= -.96178240E+02  d E =-.654224E-03
       N       E                     dE             d eps       ncg     rms          rms(c)
DAV:   1    -0.931037864734E+02    0.28230E-03   -0.83461E-01  5440   0.186E+00    0.179E-01
RMM:   2    -0.931051715443E+02   -0.13851E-02   -0.15432E-02  5985   0.354E-01    0.962E-02
RMM:   3    -0.931056163777E+02   -0.44483E-03   -0.33332E-03  7903   0.189E-01    0.959E-02
RMM:   4    -0.931054769435E+02    0.13943E-03   -0.45537E-04  7343   0.628E-02    0.591E-02
RMM:   5    -0.931054849511E+02   -0.80075E-05   -0.96647E-05  6058   0.289E-02
  75 F= -.96188068E+02 E0= -.96178774E+02  d E =-.114736E-02
       N       E                     dE             d eps       ncg     rms          rms(c)
DAV:   1    -0.931007491899E+02    0.47278E-02   -0.33337E+00  5440   0.373E+00    0.371E-01
RMM:   2    -0.931063825179E+02   -0.56333E-02   -0.62655E-02  6086   0.707E-01    0.193E-01
RMM:   3    -0.931081425046E+02   -0.17600E-02   -0.13272E-02  8171   0.384E-01    0.194E-01
RMM:   4    -0.931076091526E+02    0.53335E-03   -0.18141E-03  7760   0.125E-01    0.125E-01
RMM:   5    -0.931076438950E+02   -0.34742E-04   -0.38609E-04  7617   0.558E-02    0.792E-02
RMM:   6    -0.931076970132E+02   -0.53118E-04   -0.24007E-04  5993   0.345E-02    0.251E-02
RMM:   7    -0.931077036763E+02   -0.66631E-05   -0.89936E-05  5157   0.202E-02
  76 F= -.96188443E+02 E0= -.96179186E+02  d E =-.152258E-02
       N       E                     dE             d eps       ncg     rms          rms(c)
DAV:   1    -0.931074039132E+02    0.29310E-03   -0.46726E-02  5816   0.438E-01    0.460E-02
RMM:   2    -0.931074768244E+02   -0.72911E-04   -0.82466E-04  5580   0.823E-02    0.245E-02
RMM:   3    -0.931075094365E+02   -0.32612E-04   -0.17397E-04  6012   0.433E-02    0.286E-02
RMM:   4    -0.931074913382E+02    0.18098E-04   -0.33602E-05  4053   0.194E-02    0.111E-02
RMM:   5    -0.931074925642E+02   -0.12259E-05   -0.68838E-06  3175   0.101E-02
  77 F= -.96188451E+02 E0= -.96179179E+02  d E =-.153065E-02
       N       E                     dE             d eps       ncg     rms          rms(c)
DAV:   1    -0.931075985731E+02   -0.10723E-03   -0.53071E-03  5936   0.150E-01    0.142E-02
RMM:   2    -0.931076074951E+02   -0.89220E-05   -0.98384E-05  4636   0.290E-02
  78 F= -.96188529E+02 E0= -.96179262E+02  d E =-.782640E-04
       N       E                     dE             d eps       ncg     rms          rms(c)
DAV:   1    -0.931078513686E+02   -0.25280E-03   -0.47909E-02  5552   0.452E-01    0.435E-02
RMM:   2    -0.931079409223E+02   -0.89554E-04   -0.86285E-04  5749   0.859E-02    0.321E-02
RMM:   3    -0.931079497171E+02   -0.87948E-05   -0.21377E-04  6734   0.477E-02    0.290E-02
RMM:   4    -0.931079419660E+02    0.77511E-05   -0.32575E-05  4014   0.183E-02
  79 F= -.96188754E+02 E0= -.96179503E+02  d E =-.302661E-03
       N       E                     dE             d eps       ncg     rms          rms(c)
DAV:   1    -0.931081906756E+02   -0.24096E-03   -0.19050E-01  5504   0.898E-01    0.847E-02
RMM:   2    -0.931084952796E+02   -0.30460E-03   -0.33176E-03  5817   0.170E-01    0.515E-02
RMM:   3    -0.931086229391E+02   -0.12766E-03   -0.86488E-04  7563   0.947E-02    0.567E-02
RMM:   4    -0.931085601853E+02    0.62754E-04   -0.10618E-04  6204   0.320E-02    0.307E-02
RMM:   5    -0.931085672449E+02   -0.70596E-05   -0.32743E-05  4103   0.163E-02
  80 F= -.96189159E+02 E0= -.96179932E+02  d E =-.707736E-03
       N       E                     dE             d eps       ncg     rms          rms(c)
DAV:   1    -0.931081044981E+02    0.45569E-03   -0.76146E-01  5440   0.179E+00    0.171E-01
RMM:   2    -0.931093173860E+02   -0.12129E-02   -0.13300E-02  5943   0.340E-01    0.968E-02
RMM:   3    -0.931098136440E+02   -0.49626E-03   -0.34099E-03  7887   0.189E-01    0.992E-02
RMM:   4    -0.931096129458E+02    0.20070E-03   -0.39909E-04  7312   0.615E-02    0.577E-02
RMM:   5    -0.931096220011E+02   -0.90552E-05   -0.10457E-04  5956   0.280E-02    0.392E-02
RMM:   6    -0.931096403084E+02   -0.18307E-04   -0.58468E-05  4715   0.183E-02    0.134E-02
RMM:   7    -0.931096420072E+02   -0.16987E-05   -0.23418E-05  4046   0.116E-02
  81 F= -.96189793E+02 E0= -.96180585E+02  d E =-.134169E-02
       N       E                     dE             d eps       ncg     rms          rms(c)
DAV:   1    -0.931048806170E+02    0.47597E-02   -0.30508E+00  5440   0.358E+00    0.346E-01
RMM:   2    -0.931098015801E+02   -0.49210E-02   -0.53848E-02  6011   0.681E-01    0.192E-01
RMM:   3    -0.931117299908E+02   -0.19284E-02   -0.13524E-02  8144   0.384E-01    0.197E-01
RMM:   4    -0.931109845072E+02    0.74548E-03   -0.15369E-03  7713   0.121E-01    0.120E-01
RMM:   5    -0.931110125607E+02   -0.28053E-04   -0.36269E-04  7643   0.532E-02    0.804E-02
RMM:   6    -0.931110637068E+02   -0.51146E-04   -0.21212E-04  5886   0.332E-02    0.287E-02
RMM:   7    -0.931110698683E+02   -0.61615E-05   -0.73384E-05  5036   0.193E-02
  82 F= -.96190337E+02 E0= -.96181193E+02  d E =-.188580E-02
       N       E                     dE             d eps       ncg     rms          rms(c)
DAV:   1    -0.931112092316E+02   -0.14552E-03   -0.12767E-02  6064   0.231E-01    0.218E-02
RMM:   2    -0.931112329374E+02   -0.23706E-04   -0.26616E-04  5898   0.466E-02    0.128E-02
RMM:   3    -0.931112396191E+02   -0.66818E-05   -0.72645E-05  5144   0.262E-02
  83 F= -.96190456E+02 E0= -.96181322E+02  d E =-.119040E-03
       N       E                     dE             d eps       ncg     rms          rms(c)
DAV:   1    -0.931114067447E+02   -0.17381E-03   -0.11306E-01  5504   0.682E-01    0.665E-02
RMM:   2    -0.931115744091E+02   -0.16766E-03   -0.20023E-03  5803   0.129E-01    0.389E-02
RMM:   3    -0.931116262230E+02   -0.51814E-04   -0.49225E-04  7238   0.705E-02    0.290E-02
RMM:   4    -0.931116301385E+02   -0.39156E-05   -0.79594E-05  5388   0.255E-02
  84 F= -.96190694E+02 E0= -.96181609E+02  d E =-.357305E-03
       N       E                     dE             d eps       ncg     rms          rms(c)
DAV:   1    -0.931110278060E+02    0.59842E-03   -0.45086E-01  5472   0.136E+00    0.136E-01
RMM:   2    -0.931117005235E+02   -0.67272E-03   -0.79576E-03  5875   0.257E-01    0.798E-02
RMM:   3    -0.931119187607E+02   -0.21824E-03   -0.19203E-03  7708   0.140E-01    0.672E-02
RMM:   4    -0.931118906657E+02    0.28095E-04   -0.24957E-04  6891   0.475E-02    0.543E-02
RMM:   5    -0.931118854373E+02    0.52285E-05   -0.62819E-05  5207   0.228E-02
  85 F= -.96190645E+02 E0= -.96181566E+02  d E =-.307918E-03
       N       E                     dE             d eps       ncg     rms          rms(c)
DAV:   1    -0.931115645508E+02    0.32611E-03   -0.13848E-01  5488   0.754E-01    0.681E-02
RMM:   2    -0.931117796471E+02   -0.21510E-03   -0.24642E-03  5652   0.141E-01    0.414E-02
RMM:   3    -0.931118447163E+02   -0.65069E-04   -0.55833E-04  7048   0.757E-02    0.369E-02
RMM:   4    -0.931118330317E+02    0.11685E-04   -0.69375E-05  5245   0.257E-02    0.279E-02
RMM:   5    -0.931118319236E+02    0.11081E-05   -0.13709E-05  3383   0.129E-02
  86 F= -.96190760E+02 E0= -.96181645E+02  d E =-.422652E-03
