       N       E                     dE             d eps       ncg     rms          rms(c)
DAV:   1     0.286597144425E+04    0.28660E+04   -0.88895E+04  7072   0.226E+03
DAV:   2     0.569382195720E+03   -0.22966E+04   -0.21984E+04  5624   0.749E+02
DAV:   3    -0.153999658660E+02   -0.58478E+03   -0.55781E+03  6488   0.265E+02
DAV:   4    -0.987618963757E+02   -0.83362E+02   -0.81559E+02  7776   0.103E+02
DAV:   5    -0.105013576693E+03   -0.62517E+01   -0.61789E+01  8296   0.279E+01    0.294E+01
DAV:   6    -0.102192998432E+03    0.28206E+01   -0.51323E+01  8584   0.237E+01    0.317E+01
DAV:   7    -0.102937349930E+03   -0.74435E+00   -0.17546E+02  7240   0.310E+01    0.194E+01
DAV:   8    -0.102825933480E+03    0.11142E+00   -0.40464E+01  7632   0.203E+01    0.178E+01
DAV:   9    -0.993917022677E+02    0.34342E+01   -0.21518E+01  6960   0.104E+01    0.117E+01
DAV:  10    -0.964398564718E+02    0.29518E+01   -0.60500E+00  7528   0.827E+00    0.768E+00
DAV:  11    -0.954897152711E+02    0.95014E+00   -0.27442E+00  8224   0.531E+00    0.350E+00
DAV:  12    -0.953432128181E+02    0.14650E+00   -0.63133E-01  7848   0.255E+00    0.167E+00
DAV:  13    -0.953376335233E+02    0.55793E-02   -0.12478E-01  7472   0.172E+00    0.115E+00
DAV:  14    -0.953269823674E+02    0.10651E-01   -0.40144E-02  7584   0.998E-01    0.735E-01
DAV:  15    -0.953188358273E+02    0.81465E-02   -0.44336E-02  7144   0.817E-01    0.307E-01
DAV:  16    -0.953183975132E+02    0.43831E-03   -0.10833E-02  7168   0.347E-01    0.140E-01
DAV:  17    -0.953180029190E+02    0.39459E-03   -0.19184E-03  7416   0.144E-01    0.610E-02
DAV:  18    -0.953175771538E+02    0.42577E-03   -0.12806E-03  6768   0.105E-01    0.852E-02
DAV:  19    -0.953175642377E+02    0.12916E-04   -0.46146E-04  6232   0.756E-02    0.420E-02
DAV:  20    -0.953177171916E+02   -0.15295E-03   -0.46203E-04  5808   0.560E-02    0.627E-02
DAV:  21    -0.953180108354E+02   -0.29364E-03   -0.49239E-04  5720   0.668E-02    0.484E-02
DAV:  22    -0.953182395660E+02   -0.22873E-03   -0.97121E-05  5216   0.365E-02    0.109E-02
DAV:  23    -0.953185274324E+02   -0.28787E-03   -0.62731E-05  5544   0.222E-02    0.215E-02
DAV:  24    -0.953187193194E+02   -0.19189E-03   -0.14925E-05  4616   0.173E-02    0.193E-02
DAV:  25    -0.953187689039E+02   -0.49584E-04   -0.19171E-05  4728   0.125E-02    0.221E-03
DAV:  26    -0.953187921822E+02   -0.23278E-04   -0.22268E-06  4048   0.765E-03    0.242E-03
DAV:  27    -0.953188038666E+02   -0.11684E-04   -0.10096E-06  4000   0.511E-03    0.258E-03
DAV:  28    -0.953188121853E+02   -0.83188E-05   -0.10344E-06  3944   0.424E-03
   1 F= -.98294019E+02 E0= -.98293171E+02  d E =-.982940E+02
       N       E                     dE             d eps       ncg     rms          rms(c)
DAV:   1    -0.953180858664E+02    0.71800E-03   -0.60188E-01  5976   0.223E+00    0.174E-01
DAV:   2    -0.953201521415E+02   -0.20663E-02   -0.24506E-02  6856   0.539E-01    0.122E-01
DAV:   3    -0.953205073749E+02   -0.35523E-03   -0.44876E-03  7992   0.304E-01    0.160E-01
DAV:   4    -0.953201426686E+02    0.36471E-03   -0.19871E-03  7144   0.172E-01    0.739E-02
DAV:   5    -0.953201718984E+02   -0.29230E-04   -0.41886E-04  6608   0.870E-02    0.588E-02
DAV:   6    -0.953201178886E+02    0.54010E-04   -0.44241E-04  6592   0.106E-01    0.253E-02
DAV:   7    -0.953201115422E+02    0.63464E-05   -0.59599E-05  5376   0.358E-02
   2 F= -.98295133E+02 E0= -.98294279E+02  d E =-.111440E-02
       N       E                     dE             d eps       ncg     rms          rms(c)
DAV:   1    -0.953201535828E+02   -0.35694E-04   -0.57424E-02  5928   0.688E-01    0.531E-02
DAV:   2    -0.953203535290E+02   -0.19995E-03   -0.23462E-03  6720   0.175E-01    0.394E-02
DAV:   3    -0.953203854742E+02   -0.31945E-04   -0.44575E-04  7360   0.935E-02    0.515E-02
DAV:   4    -0.953203483502E+02    0.37124E-04   -0.18530E-04  5856   0.512E-02    0.213E-02
DAV:   5    -0.953203507804E+02   -0.24302E-05   -0.35179E-05  4736   0.278E-02
   3 F= -.98295429E+02 E0= -.98294572E+02  d E =-.141001E-02
       N       E                     dE             d eps       ncg     rms          rms(c)
DAV:   1    -0.953210928947E+02   -0.74454E-03   -0.17590E-01  6008   0.124E+00    0.810E-02
DAV:   2    -0.953217911707E+02   -0.69828E-03   -0.73655E-03  6760   0.303E-01    0.599E-02
DAV:   3    -0.953218854882E+02   -0.94317E-04   -0.93180E-04  8072   0.119E-01    0.813E-02
DAV:   4    -0.953218017319E+02    0.83756E-04   -0.38339E-04  5928   0.691E-02    0.279E-02
DAV:   5    -0.953218001967E+02    0.15352E-05   -0.50451E-05  5032   0.277E-02
   4 F= -.98296716E+02 E0= -.98295845E+02  d E =-.128688E-02
       N       E                     dE             d eps       ncg     rms          rms(c)
DAV:   1    -0.953211340767E+02    0.66766E-03   -0.44046E-01  5968   0.196E+00    0.128E-01
DAV:   2    -0.953228959673E+02   -0.17619E-02   -0.18541E-02  6904   0.473E-01    0.102E-01
DAV:   3    -0.953231127565E+02   -0.21679E-03   -0.23107E-03  8336   0.183E-01    0.128E-01
DAV:   4    -0.953229148867E+02    0.19787E-03   -0.93843E-04  6736   0.107E-01    0.481E-02
DAV:   5    -0.953229162547E+02   -0.13679E-05   -0.16984E-04  5672   0.525E-02    0.239E-02
DAV:   6    -0.953229087831E+02    0.74715E-05   -0.13910E-04  5384   0.583E-02    0.134E-02
DAV:   7    -0.953229053037E+02    0.34795E-05   -0.25007E-05  3896   0.287E-02
   5 F= -.98297569E+02 E0= -.98296684E+02  d E =-.214040E-02
       N       E                     dE             d eps       ncg     rms          rms(c)
DAV:   1    -0.953237032442E+02   -0.79446E-03   -0.21182E-01  5824   0.130E+00    0.965E-02
DAV:   2    -0.953243449521E+02   -0.64171E-03   -0.78655E-03  6840   0.310E-01    0.646E-02
DAV:   3    -0.953244618515E+02   -0.11690E-03   -0.11429E-03  8064   0.120E-01    0.902E-02
DAV:   4    -0.953243707506E+02    0.91101E-04   -0.53915E-04  6152   0.798E-02    0.414E-02
DAV:   5    -0.953243620458E+02    0.87049E-05   -0.85364E-05  5544   0.359E-02
   6 F= -.98298730E+02 E0= -.98297825E+02  d E =-.116095E-02
       N       E                     dE             d eps       ncg     rms          rms(c)
DAV:   1    -0.953244859453E+02   -0.11519E-03   -0.11704E-01  5816   0.967E-01    0.767E-02
DAV:   2    -0.953248295514E+02   -0.34361E-03   -0.44495E-03  7088   0.248E-01    0.606E-02
DAV:   3    -0.953248516736E+02   -0.22122E-04   -0.81975E-04  7376   0.136E-01    0.556E-02
DAV:   4    -0.953248281027E+02    0.23571E-04   -0.22967E-04  6112   0.551E-02    0.370E-02
DAV:   5    -0.953248391525E+02   -0.11050E-04   -0.19935E-04  5176   0.552E-02    0.331E-02
DAV:   6    -0.953248178059E+02    0.21347E-04   -0.10989E-04  5152   0.462E-02    0.114E-02
DAV:   7    -0.953248177983E+02    0.75961E-08   -0.11751E-05  4424   0.182E-02
   7 F= -.98298968E+02 E0= -.98298054E+02  d E =-.139883E-02
       N       E                     dE             d eps       ncg     rms          rms(c)
DAV:   1    -0.953252010314E+02   -0.38323E-03   -0.45719E-02  6080   0.571E-01    0.329E-02
DAV:   2    -0.953253309850E+02   -0.12995E-03   -0.13900E-03  6992   0.131E-01    0.198E-02
DAV:   3    -0.953253353081E+02   -0.43231E-05   -0.66985E-05  6528   0.366E-02
   8 F= -.98299311E+02 E0= -.98298390E+02  d E =-.342825E-03
       N       E                     dE             d eps       ncg     rms          rms(c)
DAV:   1    -0.953254775896E+02   -0.14660E-03   -0.41135E-01  6104   0.171E+00    0.964E-02
DAV:   2    -0.953266602804E+02   -0.11827E-02   -0.12476E-02  7120   0.386E-01    0.650E-02
DAV:   3    -0.953267404145E+02   -0.80134E-04   -0.84087E-04  8536   0.119E-01    0.730E-02
DAV:   4    -0.953266930426E+02    0.47372E-04   -0.42237E-04  6536   0.764E-02    0.437E-02
DAV:   5    -0.953266832005E+02    0.98421E-05   -0.77356E-05  5720   0.356E-02
   9 F= -.98300138E+02 E0= -.98299193E+02  d E =-.117015E-02
       N       E                     dE             d eps       ncg     rms          rms(c)
DAV:   1    -0.953233584389E+02    0.33346E-02   -0.16409E+00  6104   0.342E+00    0.196E-01
DAV:   2    -0.953283019494E+02   -0.49435E-02   -0.52458E-02  7088   0.779E-01    0.120E-01
DAV:   3    -0.953284820230E+02   -0.18007E-03   -0.26542E-03  8504   0.233E-01    0.983E-02
DAV:   4    -0.953284925481E+02   -0.10525E-04   -0.96090E-04  6800   0.118E-01    0.954E-02
DAV:   5    -0.953285016776E+02   -0.91295E-05   -0.77421E-04  6416   0.907E-02    0.673E-02
DAV:   6    -0.953284222149E+02    0.79463E-04   -0.66718E-04  6400   0.119E-01    0.284E-02
DAV:   7    -0.953284098363E+02    0.12379E-04   -0.11195E-04  6144   0.507E-02    0.123E-02
DAV:   8    -0.953284089519E+02    0.88434E-06   -0.13771E-05  4304   0.186E-02
  10 F= -.98300839E+02 E0= -.98299844E+02  d E =-.187081E-02
       N       E                     dE             d eps       ncg     rms          rms(c)
DAV:   1    -0.953286837533E+02   -0.27392E-03   -0.24051E-02  6096   0.419E-01    0.239E-02
DAV:   2    -0.953287529419E+02   -0.69189E-04   -0.73538E-04  6864   0.968E-02    0.141E-02
DAV:   3    -0.953287552278E+02   -0.22859E-05   -0.41232E-05  5872   0.321E-02
  11 F= -.98301075E+02 E0= -.98300079E+02  d E =-.235985E-03
       N       E                     dE             d eps       ncg     rms          rms(c)
DAV:   1    -0.953289338710E+02   -0.18093E-03   -0.14153E-01  6016   0.102E+00    0.567E-02
DAV:   2    -0.953293359914E+02   -0.40212E-03   -0.42202E-03  6968   0.233E-01    0.487E-02
DAV:   3    -0.953293717265E+02   -0.35735E-04   -0.52251E-04  7872   0.912E-02    0.577E-02
DAV:   4    -0.953293288003E+02    0.42926E-04   -0.17662E-04  5704   0.512E-02    0.226E-02
DAV:   5    -0.953293288702E+02   -0.69842E-07   -0.26358E-05  5096   0.213E-02
  12 F= -.98301382E+02 E0= -.98300368E+02  d E =-.543117E-03
