       N       E                     dE             d eps       ncg     rms          rms(c)
DAV:   1     0.294100369864E+04    0.29410E+04   -0.89456E+04  6976   0.229E+03
DAV:   2     0.602507514769E+03   -0.23385E+04   -0.22409E+04  5632   0.755E+02
DAV:   3    -0.597406356084E+01   -0.60848E+03   -0.57860E+03  6560   0.268E+02
DAV:   4    -0.939215267042E+02   -0.87947E+02   -0.86200E+02  7816   0.105E+02
DAV:   5    -0.100199947877E+03   -0.62784E+01   -0.61872E+01  8136   0.281E+01    0.298E+01
DAV:   6    -0.995936353828E+02    0.60631E+00   -0.44080E+01  8920   0.219E+01    0.323E+01
DAV:   7    -0.997743191999E+02   -0.18068E+00   -0.18055E+02  7160   0.299E+01    0.200E+01
DAV:   8    -0.100674773156E+03   -0.90045E+00   -0.40401E+01  7920   0.231E+01    0.182E+01
DAV:   9    -0.975443320793E+02    0.31304E+01   -0.21399E+01  7536   0.117E+01    0.115E+01
DAV:  10    -0.943558280909E+02    0.31885E+01   -0.59801E+00  7040   0.820E+00    0.845E+00
DAV:  11    -0.932848476251E+02    0.10710E+01   -0.23620E+00  7752   0.460E+00    0.523E+00
DAV:  12    -0.929180600965E+02    0.36679E+00   -0.47952E-01  8480   0.208E+00    0.282E+00
DAV:  13    -0.929443254044E+02   -0.26265E-01   -0.80385E-02  7264   0.172E+00    0.286E+00
DAV:  14    -0.928173997420E+02    0.12693E+00   -0.17518E-01  7808   0.147E+00    0.104E+00
DAV:  15    -0.928096099872E+02    0.77898E-02   -0.83016E-02  7672   0.807E-01    0.501E-01
DAV:  16    -0.928137209696E+02   -0.41110E-02   -0.41930E-02  6680   0.814E-01    0.651E-01
DAV:  17    -0.928082057072E+02    0.55153E-02   -0.80588E-03  7336   0.382E-01    0.228E-01
DAV:  18    -0.928078588603E+02    0.34685E-03   -0.45168E-03  8056   0.239E-01    0.132E-01
DAV:  19    -0.928078939955E+02   -0.35135E-04   -0.90827E-04  7096   0.126E-01    0.491E-02
DAV:  20    -0.928081324428E+02   -0.23845E-03   -0.49210E-04  6408   0.829E-02    0.604E-02
DAV:  21    -0.928081982751E+02   -0.65832E-04   -0.12716E-04  6552   0.511E-02    0.201E-02
DAV:  22    -0.928083956722E+02   -0.19740E-03   -0.45537E-05  4864   0.313E-02    0.164E-02
DAV:  23    -0.928084857184E+02   -0.90046E-04   -0.21282E-05  4936   0.171E-02    0.663E-03
DAV:  24    -0.928085951957E+02   -0.10948E-03   -0.11011E-05  4488   0.137E-02    0.138E-02
DAV:  25    -0.928086903255E+02   -0.95130E-04   -0.20955E-05  4752   0.162E-02    0.103E-02
DAV:  26    -0.928087512256E+02   -0.60900E-04   -0.49801E-06  4064   0.111E-02    0.265E-03
DAV:  27    -0.928087770234E+02   -0.25798E-04   -0.19483E-06  3976   0.673E-03    0.269E-03
DAV:  28    -0.928087887920E+02   -0.11769E-04   -0.95872E-07  3648   0.575E-03    0.248E-03
DAV:  29    -0.928087951355E+02   -0.63435E-05   -0.86417E-07  3808   0.364E-03
   1 F= -.95765939E+02 E0= -.95765364E+02  d E =-.172693E-02
       N       E                     dE             d eps       ncg     rms          rms(c)
DAV:   1    -0.928082995254E+02    0.48927E-03   -0.13866E+00  5632   0.130E+00    0.278E-01
DAV:   2    -0.928086769669E+02   -0.37744E-03   -0.10817E-02  5432   0.141E-01    0.156E-01
DAV:   3    -0.928086745343E+02    0.24327E-05   -0.82667E-04  6280   0.695E-02    0.378E-02
DAV:   4    -0.928088149047E+02   -0.14037E-03   -0.83827E-04  6296   0.131E-01    0.689E-02
DAV:   5    -0.928086895471E+02    0.12536E-03   -0.45237E-04  5760   0.885E-02    0.237E-02
DAV:   6    -0.928086879085E+02    0.16386E-05   -0.41109E-05  4728   0.256E-02
   2 F= -.95765818E+02 E0= -.95765230E+02  d E =-.176418E-02
       N       E                     dE             d eps       ncg     rms          rms(c)
DAV:   1    -0.928065414655E+02    0.21481E-02   -0.55206E+00  6200   0.251E+00    0.605E-01
DAV:   2    -0.928083676410E+02   -0.18262E-02   -0.47441E-02  5568   0.303E-01    0.314E-01
DAV:   3    -0.928082202096E+02    0.14743E-03   -0.27919E-03  6720   0.129E-01    0.155E-01
DAV:   4    -0.928087830588E+02   -0.56285E-03   -0.23362E-03  6616   0.231E-01    0.121E-01
DAV:   5    -0.928084083194E+02    0.37474E-03   -0.21201E-03  6512   0.236E-01    0.441E-02
DAV:   6    -0.928084162229E+02   -0.79035E-05   -0.19962E-04  5720   0.631E-02    0.290E-02
DAV:   7    -0.928084177593E+02   -0.15364E-05   -0.11222E-04  5424   0.415E-02    0.274E-02
DAV:   8    -0.928084070845E+02    0.10675E-04   -0.32706E-05  4376   0.210E-02    0.600E-03
DAV:   9    -0.928084075723E+02   -0.48775E-06   -0.27597E-06  3248   0.891E-03
   3 F= -.95765567E+02 E0= -.95765009E+02  d E =-.167280E-02
       N       E                     dE             d eps       ncg     rms          rms(c)
DAV:   1    -0.928080367281E+02    0.37036E-03   -0.27914E+00  5896   0.181E+00    0.386E-01
DAV:   2    -0.928088132098E+02   -0.77648E-03   -0.21182E-02  5600   0.206E-01    0.220E-01
DAV:   3    -0.928087776388E+02    0.35571E-04   -0.17127E-03  6408   0.124E-01    0.624E-02
DAV:   4    -0.928090538951E+02   -0.27626E-03   -0.23154E-03  6504   0.230E-01    0.792E-02
DAV:   5    -0.928087994812E+02    0.25441E-03   -0.12188E-03  6112   0.152E-01    0.456E-02
DAV:   6    -0.928087862716E+02    0.13210E-04   -0.12193E-04  5520   0.277E-02    0.282E-02
DAV:   7    -0.928087828130E+02    0.34586E-05   -0.29468E-05  4992   0.198E-02
   4 F= -.95765908E+02 E0= -.95765304E+02  d E =-.181379E-02
       N       E                     dE             d eps       ncg     rms          rms(c)
DAV:   1    -0.928047710768E+02    0.40152E-02   -0.55402E+00  6080   0.260E+00    0.568E-01
DAV:   2    -0.928080923649E+02   -0.33213E-02   -0.59105E-02  5592   0.379E-01    0.316E-01
DAV:   3    -0.928078246139E+02    0.26775E-03   -0.29675E-03  6984   0.127E-01    0.141E-01
DAV:   4    -0.928080589862E+02   -0.23437E-03   -0.96089E-04  6688   0.151E-01    0.686E-02
DAV:   5    -0.928080075691E+02    0.51417E-04   -0.12852E-03  6480   0.187E-01    0.474E-02
DAV:   6    -0.928079845582E+02    0.23011E-04   -0.38217E-04  6232   0.838E-02    0.466E-02
DAV:   7    -0.928079625980E+02    0.21960E-04   -0.11871E-04  5328   0.326E-02    0.208E-02
DAV:   8    -0.928079595389E+02    0.30591E-05   -0.14569E-05  4176   0.136E-02
   5 F= -.95765124E+02 E0= -.95764578E+02  d E =-.163760E-02
       N       E                     dE             d eps       ncg     rms          rms(c)
DAV:   1    -0.927816449608E+02    0.26318E-01   -0.29376E+00  6048   0.204E+00    0.509E-01
DAV:   2    -0.927841098951E+02   -0.24649E-02   -0.52933E-02  6352   0.350E-01    0.306E-01
DAV:   3    -0.927840179627E+02    0.91932E-04   -0.65856E-03  6920   0.363E-01    0.259E-01
DAV:   4    -0.927837792620E+02    0.23870E-03   -0.60645E-03  6440   0.318E-01    0.229E-01
DAV:   5    -0.927837221790E+02    0.57083E-04   -0.22108E-03  6880   0.121E-01    0.168E-01
DAV:   6    -0.927836826976E+02    0.39481E-04   -0.41219E-03  6544   0.287E-01    0.135E-01
DAV:   7    -0.927833096357E+02    0.37306E-03   -0.13142E-03  6296   0.149E-01    0.222E-02
DAV:   8    -0.927833226326E+02   -0.12997E-04   -0.67444E-05  6224   0.297E-02    0.160E-02
DAV:   9    -0.927833320120E+02   -0.93795E-05   -0.70749E-06  4064   0.153E-02
   6 F= -.95740068E+02 E0= -.95739669E+02  d E =-.119687E-02
       N       E                     dE             d eps       ncg     rms          rms(c)
DAV:   1    -0.927781287248E+02    0.51939E-02   -0.66099E+00  6032   0.327E+00    0.101E+00
DAV:   2    -0.927835927826E+02   -0.54641E-02   -0.16093E-01  6304   0.662E-01    0.566E-01
DAV:   3    -0.927846797168E+02   -0.10869E-02   -0.36710E-02  7160   0.791E-01    0.462E-01
DAV:   4    -0.927813590313E+02    0.33207E-02   -0.29034E-02  6912   0.806E-01    0.315E-01
DAV:   5    -0.927810938309E+02    0.26520E-03   -0.56783E-03  6808   0.198E-01    0.241E-01
DAV:   6    -0.927801415113E+02    0.95232E-03   -0.59891E-03  6264   0.297E-01    0.113E-01
DAV:   7    -0.927799721390E+02    0.16937E-03   -0.87045E-04  6200   0.125E-01    0.423E-02
DAV:   8    -0.927799475018E+02    0.24637E-04   -0.14616E-04  6392   0.514E-02    0.254E-02
DAV:   9    -0.927799499235E+02   -0.24217E-05   -0.16724E-05  4696   0.224E-02
   7 F= -.95737491E+02 E0= -.95736789E+02  d E =-.210721E-02
       N       E                     dE             d eps       ncg     rms          rms(c)
DAV:   1    -0.928079043554E+02   -0.27957E-01   -0.31693E+00  5656   0.180E+00    0.527E-01
DAV:   2    -0.928093457540E+02   -0.14414E-02   -0.54873E-02  6160   0.373E-01    0.345E-01
DAV:   3    -0.928090439831E+02    0.30177E-03   -0.65233E-03  6960   0.377E-01    0.264E-01
DAV:   4    -0.928092217142E+02   -0.17773E-03   -0.84930E-03  6752   0.403E-01    0.242E-01
DAV:   5    -0.928084963239E+02    0.72539E-03   -0.30265E-03  6840   0.261E-01    0.949E-02
DAV:   6    -0.928086035060E+02   -0.10718E-03   -0.75211E-04  6280   0.100E-01    0.980E-02
DAV:   7    -0.928084662662E+02    0.13724E-03   -0.66551E-04  6016   0.974E-02    0.358E-02
DAV:   8    -0.928084580040E+02    0.82622E-05   -0.62088E-05  5312   0.326E-02
   8 F= -.95765592E+02 E0= -.95765049E+02  d E =-.162886E-02
       N       E                     dE             d eps       ncg     rms          rms(c)
DAV:   1    -0.928064404946E+02    0.20258E-02   -0.56962E+00  6208   0.236E+00    0.513E-01
DAV:   2    -0.928083540557E+02   -0.19136E-02   -0.40852E-02  6304   0.312E-01    0.294E-01
DAV:   3    -0.928082596758E+02    0.94380E-04   -0.26678E-03  6984   0.170E-01    0.120E-01
DAV:   4    -0.928096841522E+02   -0.14245E-02   -0.77353E-03  6760   0.374E-01    0.259E-01
DAV:   5    -0.928083035928E+02    0.13806E-02   -0.39998E-03  6520   0.223E-01    0.559E-02
DAV:   6    -0.928082617014E+02    0.41891E-04   -0.27446E-04  5696   0.710E-02    0.226E-02
DAV:   7    -0.928082635585E+02   -0.18570E-05   -0.48012E-05  5232   0.304E-02
   9 F= -.95765420E+02 E0= -.95764817E+02  d E =-.180985E-02
       N       E                     dE             d eps       ncg     rms          rms(c)
DAV:   1    -0.928074418462E+02    0.81986E-03   -0.28513E+00  6088   0.167E+00    0.359E-01
DAV:   2    -0.928084328586E+02   -0.99101E-03   -0.21263E-02  5992   0.253E-01    0.210E-01
DAV:   3    -0.928083554006E+02    0.77458E-04   -0.12659E-03  6592   0.108E-01    0.905E-02
DAV:   4    -0.928086720535E+02   -0.31665E-03   -0.16989E-03  6696   0.198E-01    0.779E-02
DAV:   5    -0.928084174070E+02    0.25465E-03   -0.11221E-03  6352   0.171E-01    0.248E-02
DAV:   6    -0.928084414302E+02   -0.24023E-04   -0.13613E-04  5824   0.388E-02    0.418E-02
DAV:   7    -0.928084208378E+02    0.20592E-04   -0.72183E-05  5008   0.300E-02    0.111E-02
DAV:   8    -0.928084206889E+02    0.14891E-06   -0.57676E-06  3960   0.128E-02
  10 F= -.95765549E+02 E0= -.95765026E+02  d E =-.156943E-02
       N       E                     dE             d eps       ncg     rms          rms(c)
DAV:   1    -0.928059225367E+02    0.24983E-02   -0.57159E+00  6184   0.241E+00    0.486E-01
DAV:   2    -0.928081856170E+02   -0.22631E-02   -0.42318E-02  6320   0.318E-01    0.292E-01
DAV:   3    -0.928080659052E+02    0.11971E-03   -0.33856E-03  6680   0.203E-01    0.982E-02
DAV:   4    -0.928084720292E+02   -0.40612E-03   -0.53424E-03  6776   0.365E-01    0.105E-01
DAV:   5    -0.928079735630E+02    0.49847E-03   -0.23018E-03  6432   0.213E-01    0.431E-02
DAV:   6    -0.928079736931E+02   -0.13019E-06   -0.22516E-04  6120   0.479E-02    0.413E-02
DAV:   7    -0.928079572359E+02    0.16457E-04   -0.79386E-05  5424   0.298E-02    0.161E-02
DAV:   8    -0.928079543013E+02    0.29346E-05   -0.12571E-05  4528   0.201E-02
  11 F= -.95765115E+02 E0= -.95764493E+02  d E =-.186774E-02
       N       E                     dE             d eps       ncg     rms          rms(c)
DAV:   1    -0.927803261843E+02    0.27631E-01   -0.30735E+00  6224   0.197E+00    0.560E-01
DAV:   2    -0.927824921200E+02   -0.21659E-02   -0.50466E-02  6472   0.431E-01    0.370E-01
DAV:   3    -0.927842337506E+02   -0.17416E-02   -0.19092E-02  7512   0.608E-01    0.402E-01
DAV:   4    -0.927814967387E+02    0.27370E-02   -0.11668E-02  6688   0.478E-01    0.155E-01
DAV:   5    -0.927822977512E+02   -0.80101E-03   -0.51850E-03  6944   0.282E-01    0.231E-01
DAV:   6    -0.927812463201E+02    0.10514E-02   -0.36821E-03  6088   0.228E-01    0.465E-02
DAV:   7    -0.927812378928E+02    0.84273E-05   -0.27273E-04  6680   0.590E-02    0.308E-02
DAV:   8    -0.927812303335E+02    0.75593E-05   -0.48219E-05  5728   0.325E-02
  12 F= -.95737700E+02 E0= -.95736978E+02  d E =-.216489E-02
       N       E                     dE             d eps       ncg     rms          rms(c)
DAV:   1    -0.927873280229E+02   -0.60901E-02   -0.66482E+00  5840   0.264E+00    0.116E+00
DAV:   2    -0.927881725618E+02   -0.84454E-03   -0.13021E-01  7088   0.791E-01    0.734E-01
DAV:   3    -0.927949987519E+02   -0.68262E-02   -0.78209E-02  8160   0.136E+00    0.835E-01
DAV:   4    -0.927832843421E+02    0.11714E-01   -0.43564E-02  7368   0.801E-01    0.332E-01
DAV:   5    -0.927890684886E+02   -0.57841E-02   -0.27991E-02  7896   0.672E-01    0.558E-01
DAV:   6    -0.927825557565E+02    0.65127E-02   -0.20561E-02  7264   0.622E-01    0.962E-02
DAV:   7    -0.927825430856E+02    0.12671E-04   -0.13009E-03  7184   0.120E-01    0.558E-02
DAV:   8    -0.927825764045E+02   -0.33319E-04   -0.18217E-04  6128   0.641E-02    0.233E-02
DAV:   9    -0.927826368947E+02   -0.60490E-04   -0.27517E-05  5408   0.195E-02    0.111E-02
DAV:  10    -0.927827019792E+02   -0.65085E-04   -0.10002E-05  4520   0.126E-02    0.382E-03
DAV:  11    -0.927827438886E+02   -0.41909E-04   -0.45788E-06  4424   0.939E-03    0.284E-03
DAV:  12    -0.927827814037E+02   -0.37515E-04   -0.36821E-06  4312   0.656E-03    0.211E-03
DAV:  13    -0.927828243531E+02   -0.42949E-04   -0.70053E-06  4504   0.537E-03    0.122E-03
DAV:  14    -0.927828368716E+02   -0.12519E-04   -0.16717E-06  4152   0.464E-03    0.922E-04
DAV:  15    -0.927828430355E+02   -0.61639E-05   -0.81845E-07  3648   0.300E-03
  13 F= -.95740670E+02 E0= -.95740297E+02  d E =-.112048E-02
