       N       E                     dE             d eps       ncg     rms          rms(c)
DAV:   1     0.231916450433E+04    0.23192E+04   -0.93669E+04  5776   0.161E+03
DAV:   2     0.305997309968E+03   -0.20132E+04   -0.19579E+04  5736   0.463E+02
DAV:   3    -0.546097804477E+02   -0.36061E+03   -0.35029E+03  6360   0.203E+02
DAV:   4    -0.913457072125E+02   -0.36736E+02   -0.34307E+02  6944   0.565E+01
DAV:   5    -0.950288568836E+02   -0.36831E+01   -0.36523E+01  8864   0.127E+01    0.103E+02
RMM:   6    -0.105643910337E+03   -0.10615E+02   -0.23366E+01  6392   0.791E+00    0.439E+01
RMM:   7    -0.172112103445E+03   -0.66468E+02   -0.76146E+01  6853   0.126E+01    0.657E+01
RMM:   8    -0.103954593413E+03    0.68158E+02   -0.14191E+01  6630   0.898E+00    0.298E+01
RMM:   9    -0.896075459787E+02    0.14347E+02   -0.12771E+01  6865   0.533E+00    0.127E+01
RMM:  10    -0.877835659896E+02    0.18240E+01   -0.37530E+00  7642   0.287E+00    0.100E+01
RMM:  11    -0.874668945590E+02    0.31667E+00   -0.85096E-01  9478   0.146E+00    0.923E+00
RMM:  12    -0.872213493422E+02    0.24555E+00   -0.75840E-01  7865   0.123E+00    0.592E+00
RMM:  13    -0.875385706918E+02   -0.31722E+00   -0.86478E-01  7815   0.154E+00    0.636E+00
RMM:  14    -0.871621326246E+02    0.37644E+00   -0.20534E-01  9055   0.831E-01    0.559E+00
RMM:  15    -0.868808831694E+02    0.28125E+00   -0.30091E-01  8500   0.758E-01    0.213E+00
RMM:  16    -0.869027966693E+02   -0.21913E-01   -0.66559E-02  9531   0.398E-01    0.232E+00
RMM:  17    -0.869065786128E+02   -0.37819E-02   -0.24263E-02  9650   0.222E-01    0.235E+00
RMM:  18    -0.869224862736E+02   -0.15908E-01   -0.45281E-02  9074   0.252E-01    0.306E+00
RMM:  19    -0.868811013216E+02    0.41385E-01   -0.35857E-02  9261   0.233E-01    0.200E+00
RMM:  20    -0.868908863535E+02   -0.97850E-02   -0.17063E-02  9405   0.167E-01    0.225E+00
RMM:  21    -0.868939096683E+02   -0.30233E-02   -0.14614E-02  9237   0.152E-01    0.245E+00
RMM:  22    -0.869127274284E+02   -0.18818E-01   -0.54734E-02  9086   0.344E-01    0.332E+00
RMM:  23    -0.869276282215E+02   -0.14901E-01   -0.31494E-02  9090   0.222E-01    0.364E+00
RMM:  24    -0.869062403491E+02    0.21388E-01   -0.88477E-03  7812   0.172E-01    0.288E+00
RMM:  25    -0.868825462815E+02    0.23694E-01   -0.35492E-02  9297   0.337E-01    0.114E+00
RMM:  26    -0.868794755933E+02    0.30707E-02   -0.17529E-02  8705   0.196E-01    0.505E-01
RMM:  27    -0.868846729790E+02   -0.51974E-02   -0.40643E-03  7394   0.122E-01    0.988E-01
RMM:  28    -0.868859706177E+02   -0.12976E-02   -0.12517E-03  7101   0.662E-02    0.122E+00
RMM:  29    -0.868804342314E+02    0.55364E-02   -0.69030E-03  7883   0.145E-01    0.508E-01
RMM:  30    -0.868796959722E+02    0.73826E-03   -0.53592E-03  7656   0.102E-01    0.169E-01
RMM:  31    -0.868799060300E+02   -0.21006E-03   -0.77310E-04  5920   0.479E-02    0.161E-01
RMM:  32    -0.868802056145E+02   -0.29958E-03   -0.73152E-04  5764   0.375E-02    0.102E-01
RMM:  33    -0.868804547018E+02   -0.24909E-03   -0.43518E-04  5685   0.308E-02    0.280E-02
RMM:  34    -0.868805911580E+02   -0.13646E-03   -0.15619E-04  5140   0.202E-02    0.285E-02
RMM:  35    -0.868806857625E+02   -0.94605E-04   -0.14811E-04  5344   0.180E-02    0.385E-02
RMM:  36    -0.868807307374E+02   -0.44975E-04   -0.64318E-05  4772   0.130E-02    0.438E-02
RMM:  37    -0.868807436086E+02   -0.12871E-04   -0.39913E-05  4103   0.858E-03    0.491E-02
RMM:  38    -0.868807425709E+02    0.10377E-05   -0.17543E-05  3314   0.656E-03
   1 F= -.89962179E+02 E0= -.89951051E+02  d E =-.899622E+02
       N       E                     dE             d eps       ncg     rms          rms(c)
DAV:   1     0.144668711314E+03    0.23155E+03   -0.38143E+03  6376   0.124E+02    0.129E+02
RMM:   2     0.112514693018E+03   -0.32154E+02   -0.39118E+02  6704   0.386E+01    0.125E+02
RMM:   3     0.103594610957E+03   -0.89201E+01   -0.10672E+02  6937   0.184E+01    0.133E+02
RMM:   4     0.558077304703E+02   -0.47787E+02   -0.78353E+01  7002   0.127E+01    0.212E+02
RMM:   5     0.729242341372E+02    0.17117E+02   -0.14668E+02  7101   0.190E+01    0.179E+02
RMM:   6     0.101630761956E+03    0.28707E+02   -0.28896E+01  6873   0.106E+01    0.331E+01
RMM:   7     0.100754067267E+03   -0.87669E+00   -0.75365E+00  8053   0.445E+00    0.349E+01
RMM:   8     0.100577442878E+03   -0.17662E+00   -0.32909E+00  9236   0.287E+00    0.334E+01
RMM:   9     0.100381666303E+03   -0.19578E+00   -0.21759E+00  8421   0.213E+00    0.331E+01
RMM:  10     0.100317856292E+03   -0.63810E-01   -0.17645E+00  8368   0.203E+00    0.347E+01
RMM:  11     0.100305474130E+03   -0.12382E-01   -0.35905E+00  7740   0.298E+00    0.274E+01
RMM:  12     0.100065563175E+03   -0.23991E+00   -0.29850E+00  7851   0.263E+00    0.423E+01
RMM:  13     0.100030219908E+03   -0.35343E-01   -0.10063E+00  8750   0.159E+00    0.405E+01
RMM:  14     0.997734869958E+02   -0.25673E+00   -0.10076E+00  8450   0.143E+00    0.380E+01
RMM:  15     0.996633462128E+02   -0.11014E+00   -0.66070E-01  8347   0.121E+00    0.339E+01
RMM:  16     0.995833414382E+02   -0.80005E-01   -0.50739E-01  9116   0.955E-01    0.333E+01
RMM:  17     0.100530813077E+03    0.94747E+00   -0.13717E+00  8896   0.226E+00    0.215E+01
RMM:  18     0.100220806117E+03   -0.31001E+00   -0.31340E+00  9470   0.266E+00    0.413E+01
RMM:  19     0.100458338020E+03    0.23753E+00   -0.72087E-01  7738   0.144E+00    0.279E+01
RMM:  20     0.100628395560E+03    0.17006E+00   -0.48173E-01  7927   0.944E-01    0.159E+01
RMM:  21     0.100722392714E+03    0.93997E-01   -0.41580E-01  8250   0.944E-01    0.900E+00
RMM:  22     0.100753583196E+03    0.31190E-01   -0.33271E-01  8195   0.782E-01    0.667E+00
RMM:  23     0.100814032002E+03    0.60449E-01   -0.28620E-01  7669   0.795E-01    0.452E+00
RMM:  24     0.100813741591E+03   -0.29041E-03   -0.30966E-01  8165   0.777E-01    0.264E+00
RMM:  25     0.100800090855E+03   -0.13651E-01   -0.11814E-01  8186   0.464E-01    0.225E+00
RMM:  26     0.100790765606E+03   -0.93252E-02   -0.10363E-01  7570   0.358E-01    0.202E+00
RMM:  27     0.100786509345E+03   -0.42563E-02   -0.77441E-02  7601   0.328E-01    0.168E+00
RMM:  28     0.100781778892E+03   -0.47305E-02   -0.70339E-02  7221   0.316E-01    0.108E+00
RMM:  29     0.100776861734E+03   -0.49172E-02   -0.57946E-02  7218   0.272E-01    0.770E-01
RMM:  30     0.100772747801E+03   -0.41139E-02   -0.49126E-02  6331   0.231E-01    0.636E-01
RMM:  31     0.100769166745E+03   -0.35811E-02   -0.39190E-02  5909   0.197E-01    0.504E-01
RMM:  32     0.100765825575E+03   -0.33412E-02   -0.34326E-02  5580   0.176E-01    0.461E-01
RMM:  33     0.100763379155E+03   -0.24464E-02   -0.28398E-02  6012   0.168E-01    0.394E-01
RMM:  34     0.100761091602E+03   -0.22876E-02   -0.24700E-02  5915   0.148E-01    0.339E-01
RMM:  35     0.100759193949E+03   -0.18977E-02   -0.20148E-02  5577   0.130E-01    0.268E-01
RMM:  36     0.100757535022E+03   -0.16589E-02   -0.17605E-02  5372   0.117E-01    0.250E-01
RMM:  37     0.100756136539E+03   -0.13985E-02   -0.14712E-02  4904   0.106E-01    0.260E-01
RMM:  38     0.100754945727E+03   -0.11908E-02   -0.12818E-02  5261   0.101E-01    0.231E-01
RMM:  39     0.100753934021E+03   -0.10117E-02   -0.10783E-02  5076   0.912E-02    0.173E-01
RMM:  40     0.100753039399E+03   -0.89462E-03   -0.93928E-03  5001   0.826E-02    0.135E-01
RMM:  41     0.100752287930E+03   -0.75147E-03   -0.79289E-03  4114   0.740E-02    0.942E-02
RMM:  42     0.100751633432E+03   -0.65450E-03   -0.68856E-03  3756   0.676E-02    0.795E-02
RMM:  43     0.100751071403E+03   -0.56203E-03   -0.58858E-03  3290   0.615E-02    0.917E-02
RMM:  44     0.100750596339E+03   -0.47506E-03   -0.50896E-03  3607   0.574E-02    0.735E-02
RMM:  45     0.100750187893E+03   -0.40845E-03   -0.43419E-03  3542   0.530E-02    0.654E-02
RMM:  46     0.100749835526E+03   -0.35237E-03   -0.37520E-03  3567   0.498E-02    0.596E-02
RMM:  47     0.100749538874E+03   -0.29665E-03   -0.31935E-03  4185   0.479E-02    0.409E-02
RMM:  48     0.100749279539E+03   -0.25934E-03   -0.27519E-03  3313   0.425E-02    0.375E-02
RMM:  49     0.100749058310E+03   -0.22123E-03   -0.23516E-03  3328   0.400E-02    0.326E-02
RMM:  50     0.100748869239E+03   -0.18907E-03   -0.20210E-03  3818   0.387E-02    0.167E-02
RMM:  51     0.100748706272E+03   -0.16297E-03   -0.17313E-03  3143   0.346E-02    0.161E-02
RMM:  52     0.100748565152E+03   -0.14112E-03   -0.14949E-03  3076   0.320E-02    0.162E-02
RMM:  53     0.100748443862E+03   -0.12129E-03   -0.12844E-03  3081   0.297E-02    0.165E-02
RMM:  54     0.100748339385E+03   -0.10448E-03   -0.11087E-03  3111   0.279E-02    0.151E-02
RMM:  55     0.100748249786E+03   -0.89600E-04   -0.95400E-04  2967   0.259E-02    0.144E-02
RMM:  56     0.100748172194E+03   -0.77592E-04   -0.82577E-04  2768   0.240E-02    0.162E-02
RMM:  57     0.100748105302E+03   -0.66892E-04   -0.71363E-04  2771   0.223E-02    0.191E-02
RMM:  58     0.100748047313E+03   -0.57988E-04   -0.61849E-04  2681   0.206E-02    0.226E-02
RMM:  59     0.100747997100E+03   -0.50214E-04   -0.53510E-04  2595   0.192E-02    0.257E-02
RMM:  60     0.100747953258E+03   -0.43842E-04   -0.46609E-04  2357   0.177E-02    0.300E-02
RMM:  61     0.100747915307E+03   -0.37951E-04   -0.40467E-04  2303   0.166E-02    0.337E-02
RMM:  62     0.100747882490E+03   -0.32817E-04   -0.35267E-04  2470   0.158E-02    0.359E-02
RMM:  63     0.100747853893E+03   -0.28596E-04   -0.30687E-04  2296   0.148E-02    0.388E-02
RMM:  64     0.100747828937E+03   -0.24956E-04   -0.26807E-04  2227   0.139E-02    0.418E-02
RMM:  65     0.100747807127E+03   -0.21810E-04   -0.23515E-04  2216   0.131E-02    0.447E-02
RMM:  66     0.100747788353E+03   -0.18774E-04   -0.20390E-04  2152   0.123E-02    0.474E-02
RMM:  67     0.100747771751E+03   -0.16602E-04   -0.17908E-04  2130   0.116E-02    0.502E-02
RMM:  68     0.100747757361E+03   -0.14390E-04   -0.15755E-04  2092   0.109E-02    0.524E-02
RMM:  69     0.100747744692E+03   -0.12669E-04   -0.14058E-04  2107   0.104E-02    0.546E-02
RMM:  70     0.100747733809E+03   -0.10882E-04   -0.12420E-04  2098   0.994E-03    0.565E-02
RMM:  71     0.100747724870E+03   -0.89394E-05   -0.10401E-04  2064   0.931E-03    0.584E-02
RMM:  72     0.100747716524E+03   -0.83464E-05   -0.89470E-05  2058   0.864E-03
   2 F= 0.97560271E+02 E0= 0.97557917E+02  d E =0.187522E+03
       N       E                     dE             d eps       ncg     rms          rms(c)
DAV:   1    -0.662527985385E+02   -0.16700E+03   -0.36643E+03  7328   0.129E+02    0.166E+02
RMM:   2    -0.529021145464E+02    0.13351E+02   -0.37312E+02  6871   0.397E+01    0.101E+02
RMM:   3    -0.215568295590E+03   -0.16267E+03   -0.31166E+02  6819   0.325E+01    0.574E+01
RMM:   4    -0.642730377495E+02    0.15130E+03   -0.20238E+02  7137   0.259E+01    0.207E+01
RMM:   5    -0.549316636159E+02    0.93414E+01   -0.43758E+01  7774   0.137E+01    0.195E+01
RMM:   6    -0.505947575962E+02    0.43369E+01   -0.23131E+01  8618   0.929E+00    0.133E+01
RMM:   7    -0.493751413056E+02    0.12196E+01   -0.16677E+01  8158   0.880E+00    0.685E+00
RMM:   8    -0.495915916787E+02   -0.21645E+00   -0.17163E+01  8845   0.763E+00    0.336E+00
RMM:   9    -0.492106806474E+02    0.38091E+00    0.19261E+00  9339   0.622E+00    0.255E+00
RMM:  10    -0.492839781006E+02   -0.73297E-01   -0.15944E+00  9491   0.552E+00    0.120E+00
RMM:  11    -0.492934880874E+02   -0.95100E-02   -0.66615E-01  9097   0.512E+00    0.990E-01
RMM:  12    -0.493914763095E+02   -0.97988E-01   -0.15522E+00  9632   0.486E+00    0.825E-01
RMM:  13    -0.494057686201E+02   -0.14292E-01   -0.70763E-01  9570   0.464E+00    0.499E-01
RMM:  14    -0.494632038090E+02   -0.57435E-01   -0.11071E+00  9641   0.449E+00    0.640E-01
RMM:  15    -0.495580035842E+02   -0.94800E-01   -0.16792E+00  9568   0.435E+00    0.290E-01
RMM:  16    -0.496447753207E+02   -0.86772E-01   -0.14390E+00  9607   0.418E+00    0.361E-01
RMM:  17    -0.496760177524E+02   -0.31242E-01   -0.88165E-01  9480   0.409E+00    0.898E-01
RMM:  18    -0.497090473966E+02   -0.33030E-01   -0.94147E-01  9489   0.398E+00    0.104E+00
RMM:  19    -0.497393124037E+02   -0.30265E-01   -0.92998E-01  9505   0.389E+00    0.106E+00
RMM:  20    -0.497638913446E+02   -0.24579E-01   -0.86717E-01  9338   0.381E+00    0.122E+00
RMM:  21    -0.497843202918E+02   -0.20429E-01   -0.84378E-01  9458   0.375E+00    0.130E+00
RMM:  22    -0.497977432396E+02   -0.13423E-01   -0.77948E-01  9269   0.368E+00    0.145E+00
RMM:  23    -0.498111629723E+02   -0.13420E-01   -0.80038E-01  9372   0.363E+00    0.151E+00
RMM:  24    -0.498201725934E+02   -0.90096E-02   -0.77712E-01  9337   0.357E+00    0.154E+00
RMM:  25    -0.498345144116E+02   -0.14342E-01   -0.86607E-01  9551   0.352E+00    0.138E+00
RMM:  26    -0.498409980571E+02   -0.64836E-02   -0.76351E-01  9296   0.347E+00    0.145E+00
RMM:  27    -0.498455662475E+02   -0.45682E-02   -0.75422E-01  9331   0.342E+00    0.154E+00
RMM:  28    -0.498466708396E+02   -0.11046E-02   -0.74147E-01  9277   0.338E+00    0.159E+00
RMM:  29    -0.498450150914E+02    0.16557E-02   -0.72078E-01  9239   0.335E+00    0.169E+00
RMM:  30    -0.498406159682E+02    0.43991E-02   -0.71205E-01  9229   0.332E+00    0.177E+00
RMM:  31    -0.498326632462E+02    0.79527E-02   -0.69166E-01  9211   0.329E+00    0.186E+00
RMM:  32    -0.498239001711E+02    0.87631E-02   -0.70079E-01  9189   0.326E+00    0.195E+00
RMM:  33    -0.498089042690E+02    0.14996E-01   -0.66054E-01  9223   0.324E+00    0.201E+00
RMM:  34    -0.497907197914E+02    0.18184E-01   -0.66678E-01  9412   0.321E+00    0.198E+00
RMM:  35    -0.497719175681E+02    0.18802E-01   -0.69037E-01  9520   0.319E+00    0.190E+00
RMM:  36    -0.497525233469E+02    0.19394E-01   -0.68188E-01  9313   0.317E+00    0.192E+00
RMM:  37    -0.497258467812E+02    0.26677E-01   -0.60903E-01  9257   0.315E+00    0.204E+00
RMM:  38    -0.496903457358E+02    0.35501E-01   -0.54965E-01  9137   0.314E+00    0.214E+00
RMM:  39    -0.496499149632E+02    0.40431E-01   -0.53300E-01  9245   0.313E+00    0.220E+00
RMM:  40    -0.496004346235E+02    0.49480E-01   -0.48237E-01  9290   0.312E+00    0.222E+00
RMM:  41    -0.495413721924E+02    0.59062E-01   -0.37084E-01  9259   0.312E+00    0.243E+00
RMM:  42    -0.494665727903E+02    0.74799E-01   -0.29782E-01  9175   0.311E+00    0.246E+00
RMM:  43    -0.493785508173E+02    0.88022E-01   -0.19637E-01  9261   0.312E+00    0.254E+00
RMM:  44    -0.492707545621E+02    0.10780E+00   -0.27639E-02  9220   0.312E+00    0.265E+00
RMM:  45    -0.491332478125E+02    0.13751E+00    0.21400E-01  9171   0.314E+00    0.279E+00
RMM:  46    -0.489540385209E+02    0.17921E+00    0.55542E-01  9068   0.316E+00    0.293E+00
RMM:  47    -0.487243771591E+02    0.22966E+00    0.86112E-01  9562   0.320E+00    0.270E+00
RMM:  48    -0.483896646367E+02    0.33471E+00    0.18859E+00  9428   0.322E+00    0.287E+00
RMM:  49    -0.479390491947E+02    0.45062E+00    0.29560E+00  9246   0.325E+00    0.323E+00
RMM:  50    -0.476334157962E+02    0.30563E+00    0.17964E+00  9108   0.321E+00    0.369E+00
RMM:  51    -0.474832581201E+02    0.15016E+00    0.32288E-01  9236   0.314E+00    0.400E+00
RMM:  52    -0.473427589319E+02    0.14050E+00    0.19511E-01  9427   0.312E+00    0.401E+00
RMM:  53    -0.471720579157E+02    0.17070E+00    0.51663E-01  9104   0.311E+00    0.423E+00
RMM:  54    -0.469486701585E+02    0.22339E+00    0.10269E+00  9127   0.309E+00    0.457E+00
RMM:  55    -0.466531246038E+02    0.29555E+00    0.17358E+00  9065   0.309E+00    0.510E+00
RMM:  56    -0.463913980246E+02    0.26173E+00    0.13623E+00  9077   0.310E+00    0.576E+00
RMM:  57    -0.463129472428E+02    0.78451E-01   -0.43032E-01  9591   0.307E+00    0.604E+00
RMM:  58    -0.463409125189E+02   -0.27965E-01   -0.13215E+00  9158   0.302E+00    0.646E+00
RMM:  59    -0.464229658241E+02   -0.82053E-01   -0.18394E+00  9189   0.301E+00    0.698E+00
RMM:  60    -0.465032401062E+02   -0.80274E-01   -0.18249E+00  9085   0.298E+00    0.754E+00
RMM:  61    -0.464698533026E+02    0.33387E-01   -0.72681E-01  9080   0.297E+00    0.782E+00
RMM:  62    -0.463920122335E+02    0.77841E-01   -0.39898E-01  9464   0.295E+00    0.775E+00
RMM:  63    -0.462818954690E+02    0.11012E+00   -0.51619E-02  9133   0.294E+00    0.790E+00
RMM:  64    -0.461314106765E+02    0.15048E+00    0.30288E-01  9153   0.294E+00    0.801E+00
RMM:  65    -0.459377788274E+02    0.19363E+00    0.67550E-01  9081   0.296E+00    0.817E+00
RMM:  66    -0.456813431060E+02    0.25644E+00    0.12541E+00  9136   0.298E+00    0.844E+00
RMM:  67    -0.453519925428E+02    0.32935E+00    0.19837E+00  9151   0.299E+00    0.900E+00
RMM:  68    -0.450057634661E+02    0.34623E+00    0.21495E+00  9057   0.302E+00    0.975E+00
RMM:  69    -0.447927376819E+02    0.21303E+00    0.75052E-01  8968   0.300E+00    0.106E+01
RMM:  70    -0.447358067739E+02    0.56931E-01   -0.66361E-01  8963   0.299E+00    0.111E+01
RMM:  71    -0.447282746098E+02    0.75322E-02   -0.11299E+00  9034   0.300E+00    0.118E+01
RMM:  72    -0.446258141053E+02    0.10246E+00   -0.24794E-01  9160   0.298E+00    0.124E+01
RMM:  73    -0.443468584856E+02    0.27896E+00    0.14540E+00  8950   0.298E+00    0.126E+01
RMM:  74    -0.439896912518E+02    0.35717E+00    0.21558E+00  8982   0.300E+00    0.128E+01
RMM:  75    -0.435436442602E+02    0.44605E+00    0.30155E+00  8893   0.301E+00    0.132E+01
RMM:  76    -0.430146653828E+02    0.52898E+00    0.38863E+00  8864   0.299E+00    0.141E+01
RMM:  77    -0.424740501989E+02    0.54062E+00    0.40514E+00  9224   0.299E+00    0.154E+01
RMM:  78    -0.420320601913E+02    0.44199E+00    0.30848E+00  8977   0.299E+00    0.167E+01
RMM:  79    -0.416972163884E+02    0.33484E+00    0.20925E+00  8879   0.296E+00    0.174E+01
RMM:  80    -0.413538886215E+02    0.34333E+00    0.23323E+00  8836   0.287E+00    0.181E+01
RMM:  81    -0.410319024004E+02    0.32199E+00    0.21974E+00  8772   0.282E+00    0.188E+01
RMM:  82    -0.408238287728E+02    0.20807E+00    0.12281E+00  9293   0.281E+00    0.192E+01
RMM:  83    -0.406810201699E+02    0.14281E+00    0.51283E-01  8959   0.275E+00    0.195E+01
RMM:  84    -0.405330101676E+02    0.14801E+00    0.53818E-01  8927   0.272E+00    0.196E+01
RMM:  85    -0.403565731630E+02    0.17644E+00    0.76516E-01  8771   0.268E+00    0.197E+01
RMM:  86    -0.401291953055E+02    0.22738E+00    0.13187E+00  8897   0.267E+00    0.198E+01
RMM:  87    -0.400639103397E+02    0.65285E-01    0.29284E-01  9449   0.257E+00    0.201E+01
RMM:  88    -0.399596070093E+02    0.10430E+00    0.46251E-01  9027   0.250E+00    0.205E+01
RMM:  89    -0.398952098175E+02    0.64397E-01    0.21735E-03  8891   0.246E+00    0.209E+01
RMM:  90    -0.398591563380E+02    0.36053E-01   -0.32896E-01  8859   0.243E+00    0.213E+01
RMM:  91    -0.398604404229E+02   -0.12841E-02   -0.61909E-01  9048   0.240E+00    0.216E+01
RMM:  92    -0.399000762062E+02   -0.39636E-01   -0.10561E+00  8876   0.238E+00    0.219E+01
RMM:  93    -0.400032248408E+02   -0.10315E+00   -0.17205E+00  9043   0.237E+00    0.223E+01
RMM:  94    -0.401801382528E+02   -0.17691E+00   -0.23993E+00  8726   0.239E+00    0.229E+01
RMM:  95    -0.404313194161E+02   -0.25118E+00   -0.30465E+00  8639   0.236E+00    0.237E+01
RMM:  96    -0.407025789911E+02   -0.27126E+00   -0.32937E+00  8653   0.230E+00    0.246E+01
RMM:  97    -0.410460209146E+02   -0.34344E+00   -0.38416E+00  9545   0.229E+00    0.255E+01
RMM:  98    -0.414161824938E+02   -0.37016E+00   -0.42442E+00  9070   0.227E+00    0.267E+01
RMM:  99    -0.416931841108E+02   -0.27700E+00   -0.31398E+00  9011   0.221E+00    0.277E+01
RMM: 100    -0.417925717612E+02   -0.99388E-01   -0.13650E+00  8719   0.214E+00
   3 F= -.44878070E+02 E0= -.44876626E+02  d E =0.450841E+02
       N       E                     dE             d eps       ncg     rms          rms(c)
DAV:   1    -0.113544117889E+03   -0.71851E+02   -0.67609E+02  8272   0.413E+00    0.291E+01
RMM:   2    -0.898340901516E+02    0.23710E+02   -0.17025E+02  6721   0.246E+01    0.204E+01
RMM:   3    -0.774573821379E+02    0.12377E+02   -0.60329E+01  6805   0.126E+01    0.968E+00
RMM:   4    -0.764908416385E+02    0.96654E+00   -0.16812E+01  7256   0.629E+00    0.598E+00
RMM:   5    -0.769576367760E+02   -0.46680E+00   -0.93856E+00  7497   0.411E+00    0.338E+00
RMM:   6    -0.774186947838E+02   -0.46106E+00   -0.46897E+00  8060   0.264E+00    0.374E+00
RMM:   7    -0.774009899726E+02    0.17705E-01   -0.26246E+00  7706   0.198E+00    0.180E+00
RMM:   8    -0.776085269196E+02   -0.20754E+00   -0.22438E+00  8352   0.149E+00    0.105E+00
RMM:   9    -0.777650022372E+02   -0.15648E+00   -0.15770E+00  8100   0.119E+00    0.381E-01
RMM:  10    -0.778958150447E+02   -0.13081E+00   -0.12848E+00  8736   0.969E-01    0.142E-01
RMM:  11    -0.779791888794E+02   -0.83374E-01   -0.81324E-01  9039   0.823E-01    0.120E-01
RMM:  12    -0.780366007992E+02   -0.57412E-01   -0.55704E-01  8608   0.739E-01    0.930E-02
RMM:  13    -0.780796455999E+02   -0.43045E-01   -0.42114E-01  8126   0.677E-01    0.512E-02
RMM:  14    -0.781152111609E+02   -0.35566E-01   -0.34546E-01  7780   0.634E-01    0.366E-02
RMM:  15    -0.781468388738E+02   -0.31628E-01   -0.31187E-01  7347   0.596E-01    0.473E-02
RMM:  16    -0.781800977897E+02   -0.33259E-01   -0.32513E-01  7043   0.567E-01    0.572E-02
RMM:  17    -0.782186340334E+02   -0.38536E-01   -0.36802E-01  6818   0.544E-01    0.921E-02
RMM:  18    -0.782668839315E+02   -0.48250E-01   -0.43967E-01  6528   0.527E-01    0.136E-01
RMM:  19    -0.783161123484E+02   -0.49228E-01   -0.46478E-01  6360   0.512E-01    0.159E-01
RMM:  20    -0.783577153063E+02   -0.41603E-01   -0.40698E-01  6019   0.495E-01    0.178E-01
RMM:  21    -0.783889866282E+02   -0.31271E-01   -0.31205E-01  6039   0.481E-01    0.182E-01
RMM:  22    -0.784132786649E+02   -0.24292E-01   -0.24622E-01  6278   0.473E-01    0.166E-01
RMM:  23    -0.784329035420E+02   -0.19625E-01   -0.20016E-01  5943   0.456E-01    0.172E-01
RMM:  24    -0.784490535756E+02   -0.16150E-01   -0.16582E-01  5525   0.442E-01    0.188E-01
RMM:  25    -0.784634808279E+02   -0.14427E-01   -0.14807E-01  5415   0.431E-01    0.202E-01
RMM:  26    -0.784777658087E+02   -0.14285E-01   -0.14608E-01  4961   0.423E-01    0.217E-01
RMM:  27    -0.784918146080E+02   -0.14049E-01   -0.14411E-01  4791   0.416E-01    0.229E-01
RMM:  28    -0.785065608809E+02   -0.14746E-01   -0.14970E-01  4188   0.410E-01    0.239E-01
RMM:  29    -0.785231307993E+02   -0.16570E-01   -0.16395E-01  4118   0.405E-01    0.248E-01
RMM:  30    -0.785417168841E+02   -0.18586E-01   -0.18164E-01  4232   0.402E-01    0.258E-01
RMM:  31    -0.785624779967E+02   -0.20761E-01   -0.20257E-01  3979   0.399E-01    0.274E-01
RMM:  32    -0.785872175547E+02   -0.24740E-01   -0.23705E-01  4161   0.396E-01    0.294E-01
RMM:  33    -0.786141465747E+02   -0.26929E-01   -0.25084E-01  3627   0.393E-01    0.321E-01
RMM:  34    -0.786398682110E+02   -0.25722E-01   -0.24771E-01  3609   0.390E-01    0.349E-01
RMM:  35    -0.786626503944E+02   -0.22782E-01   -0.22348E-01  3512   0.388E-01    0.378E-01
RMM:  36    -0.786856399588E+02   -0.22990E-01   -0.22887E-01  3521   0.385E-01    0.408E-01
RMM:  37    -0.787069689384E+02   -0.21329E-01   -0.21329E-01  3370   0.382E-01    0.441E-01
RMM:  38    -0.787280309290E+02   -0.21062E-01   -0.21171E-01  3453   0.379E-01    0.473E-01
RMM:  39    -0.787475563992E+02   -0.19525E-01   -0.19696E-01  3386   0.377E-01    0.502E-01
RMM:  40    -0.787669770204E+02   -0.19421E-01   -0.19645E-01  3503   0.373E-01    0.525E-01
RMM:  41    -0.787858078173E+02   -0.18831E-01   -0.19082E-01  3396   0.371E-01    0.545E-01
RMM:  42    -0.788052764144E+02   -0.19469E-01   -0.19705E-01  3335   0.368E-01    0.563E-01
RMM:  43    -0.788248165570E+02   -0.19540E-01   -0.19763E-01  3310   0.365E-01    0.580E-01
RMM:  44    -0.788449246744E+02   -0.20108E-01   -0.20339E-01  3216   0.362E-01    0.595E-01
RMM:  45    -0.788651849563E+02   -0.20260E-01   -0.20472E-01  3410   0.360E-01    0.608E-01
RMM:  46    -0.788854789295E+02   -0.20294E-01   -0.20543E-01  3322   0.357E-01    0.619E-01
RMM:  47    -0.789054230093E+02   -0.19944E-01   -0.20139E-01  4538   0.356E-01    0.631E-01
RMM:  48    -0.789246069024E+02   -0.19184E-01   -0.19438E-01  4568   0.353E-01    0.639E-01
RMM:  49    -0.789426949463E+02   -0.18088E-01   -0.18421E-01  3595   0.350E-01    0.646E-01
RMM:  50    -0.789598504474E+02   -0.17156E-01   -0.17400E-01  4604   0.349E-01    0.652E-01
RMM:  51    -0.789758947679E+02   -0.16044E-01   -0.16316E-01  4507   0.346E-01    0.658E-01
RMM:  52    -0.789910273326E+02   -0.15133E-01   -0.15478E-01  4228   0.343E-01    0.664E-01
RMM:  53    -0.790054229044E+02   -0.14396E-01   -0.14767E-01  3340   0.341E-01    0.667E-01
RMM:  54    -0.790194901696E+02   -0.14067E-01   -0.14390E-01  2932   0.338E-01    0.670E-01
RMM:  55    -0.790334715981E+02   -0.13981E-01   -0.14262E-01  3241   0.337E-01    0.672E-01
RMM:  56    -0.790479679964E+02   -0.14496E-01   -0.14664E-01  4526   0.337E-01    0.673E-01
RMM:  57    -0.790640054267E+02   -0.16037E-01   -0.15633E-01  4808   0.338E-01    0.684E-01
RMM:  58    -0.790811745719E+02   -0.17169E-01   -0.16998E-01  4294   0.336E-01    0.685E-01
RMM:  59    -0.790996540135E+02   -0.18479E-01   -0.18156E-01  4443   0.337E-01    0.690E-01
RMM:  60    -0.791167117045E+02   -0.17058E-01   -0.16853E-01  3865   0.336E-01    0.698E-01
RMM:  61    -0.791350094634E+02   -0.18298E-01   -0.18342E-01  3783   0.335E-01    0.705E-01
RMM:  62    -0.791562049574E+02   -0.21195E-01   -0.23947E-01  9628   0.428E-01    0.710E-01
RMM:  63    -0.791800418064E+02   -0.23837E-01   -0.23477E-01  6810   0.373E-01    0.713E-01
RMM:  64    -0.792071896566E+02   -0.27148E-01   -0.27285E-01  5741   0.358E-01    0.723E-01
RMM:  65    -0.792339970083E+02   -0.26807E-01   -0.27689E-01  5528   0.350E-01    0.722E-01
RMM:  66    -0.792597931270E+02   -0.25796E-01   -0.27009E-01  6167   0.350E-01    0.720E-01
RMM:  67    -0.792826370226E+02   -0.22844E-01   -0.24064E-01  8744   0.401E-01    0.687E-01
RMM:  68    -0.793077857704E+02   -0.25149E-01   -0.22763E-01  8470   0.379E-01    0.722E-01
RMM:  69    -0.793262484371E+02   -0.18463E-01   -0.18767E-01  5972   0.349E-01    0.728E-01
RMM:  70    -0.793427803657E+02   -0.16532E-01   -0.17148E-01  5790   0.342E-01    0.731E-01
RMM:  71    -0.793580535435E+02   -0.15273E-01   -0.15396E-01  5417   0.335E-01    0.745E-01
RMM:  72    -0.793668219862E+02   -0.87684E-02   -0.14614E-01  8855   0.375E-01    0.663E-01
RMM:  73    -0.793798136889E+02   -0.12992E-01   -0.13451E-01  6002   0.339E-01    0.665E-01
RMM:  74    -0.793920930569E+02   -0.12279E-01   -0.12689E-01  5449   0.327E-01    0.668E-01
RMM:  75    -0.794042477392E+02   -0.12155E-01   -0.12840E-01  5383   0.319E-01    0.665E-01
RMM:  76    -0.794170365625E+02   -0.12789E-01   -0.12881E-01  4994   0.312E-01    0.676E-01
RMM:  77    -0.794303124507E+02   -0.13276E-01   -0.16097E-01  9690   0.391E-01    0.668E-01
RMM:  78    -0.794436870772E+02   -0.13375E-01   -0.14667E-01  8187   0.356E-01    0.673E-01
RMM:  79    -0.794561724406E+02   -0.12485E-01   -0.12412E-01  6263   0.329E-01    0.692E-01
RMM:  80    -0.794689179936E+02   -0.12746E-01   -0.13057E-01  5413   0.314E-01    0.698E-01
RMM:  81    -0.794821488328E+02   -0.13231E-01   -0.13304E-01  4992   0.304E-01    0.706E-01
RMM:  82    -0.794990402016E+02   -0.16891E-01   -0.14691E-01  7640   0.351E-01    0.733E-01
RMM:  83    -0.795164340784E+02   -0.17394E-01   -0.15297E-01  7777   0.352E-01    0.728E-01
RMM:  84    -0.795338556307E+02   -0.17422E-01   -0.14027E-01  5540   0.316E-01    0.711E-01
RMM:  85    -0.795630075430E+02   -0.29152E-01   -0.23015E-01  5198   0.310E-01    0.711E-01
RMM:  86    -0.796073340661E+02   -0.44327E-01   -0.40513E-01  5521   0.327E-01    0.743E-01
RMM:  87    -0.796813550290E+02   -0.74021E-01   -0.76575E-01  8330   0.366E-01    0.624E-01
RMM:  88    -0.797754902904E+02   -0.94135E-01   -0.86977E-01  7941   0.372E-01    0.637E-01
RMM:  89    -0.798505247110E+02   -0.75034E-01   -0.67030E-01  8562   0.367E-01    0.646E-01
RMM:  90    -0.798876865340E+02   -0.37162E-01   -0.33302E-01  7011   0.335E-01    0.656E-01
RMM:  91    -0.799107537998E+02   -0.23067E-01   -0.22534E-01  5846   0.315E-01    0.666E-01
RMM:  92    -0.799249639712E+02   -0.14210E-01   -0.15101E-01  9675   0.364E-01    0.680E-01
RMM:  93    -0.799362347612E+02   -0.11271E-01   -0.11607E-01  7133   0.318E-01    0.682E-01
RMM:  94    -0.799485703840E+02   -0.12336E-01   -0.12242E-01  6925   0.313E-01    0.711E-01
RMM:  95    -0.799605446950E+02   -0.11974E-01   -0.11594E-01  5878   0.300E-01    0.733E-01
RMM:  96    -0.799719897056E+02   -0.11445E-01   -0.11405E-01  5484   0.290E-01    0.749E-01
RMM:  97    -0.799809078359E+02   -0.89181E-02   -0.14031E-01  9991   0.424E-01    0.650E-01
RMM:  98    -0.799891253847E+02   -0.82175E-02   -0.12813E-01  9838   0.369E-01    0.558E-01
RMM:  99    -0.799986410752E+02   -0.95157E-02   -0.11755E-01  9242   0.342E-01    0.485E-01
RMM: 100    -0.800078814330E+02   -0.92404E-02   -0.10827E-01  7453   0.317E-01
   4 F= -.83095036E+02 E0= -.83095169E+02  d E =0.686714E+01
       N       E                     dE             d eps       ncg     rms          rms(c)
DAV:   1    -0.777294443935E+02    0.22692E+01   -0.48180E+02  5952   0.371E+01    0.325E+01
RMM:   2    -0.844253154917E+02   -0.66959E+01   -0.74527E+01  6427   0.201E+01    0.224E+01
RMM:   3    -0.854234270724E+02   -0.99811E+00   -0.14456E+01  7049   0.751E+00    0.467E+00
RMM:   4    -0.860670240560E+02   -0.64360E+00   -0.53784E+00  7640   0.362E+00    0.320E+00
RMM:   5    -0.861736303050E+02   -0.10661E+00   -0.25609E+00  8599   0.178E+00    0.228E+00
RMM:   6    -0.863923829831E+02   -0.21875E+00   -0.21332E+00  8572   0.123E+00    0.141E+00
RMM:   7    -0.865818170239E+02   -0.18943E+00   -0.16687E+00  9360   0.856E-01    0.127E+00
RMM:   8    -0.867083422509E+02   -0.12653E+00   -0.11443E+00  8943   0.665E-01    0.815E-01
RMM:   9    -0.867842927738E+02   -0.75951E-01   -0.75543E-01  9156   0.533E-01    0.357E-01
RMM:  10    -0.868358018072E+02   -0.51509E-01   -0.50986E-01  9335   0.422E-01    0.109E-01
RMM:  11    -0.868741836625E+02   -0.38382E-01   -0.37779E-01  8999   0.335E-01    0.166E-01
RMM:  12    -0.869027993343E+02   -0.28616E-01   -0.28378E-01  8580   0.278E-01    0.226E-01
RMM:  13    -0.869224326696E+02   -0.19633E-01   -0.19524E-01  8202   0.233E-01    0.206E-01
RMM:  14    -0.869370326120E+02   -0.14600E-01   -0.14562E-01  7607   0.197E-01    0.224E-01
RMM:  15    -0.869476508275E+02   -0.10618E-01   -0.10567E-01  7123   0.167E-01    0.255E-01
RMM:  16    -0.869557680376E+02   -0.81172E-02   -0.81456E-02  6982   0.147E-01    0.218E-01
RMM:  17    -0.869619207043E+02   -0.61527E-02   -0.61525E-02  6812   0.128E-01    0.182E-01
RMM:  18    -0.869667238880E+02   -0.48032E-02   -0.47936E-02  6403   0.110E-01    0.165E-01
RMM:  19    -0.869704930422E+02   -0.37692E-02   -0.37501E-02  5914   0.944E-02    0.171E-01
RMM:  20    -0.869735035279E+02   -0.30105E-02   -0.29969E-02  5673   0.823E-02    0.180E-01
RMM:  21    -0.869758928532E+02   -0.23893E-02   -0.23941E-02  5762   0.743E-02    0.163E-01
RMM:  22    -0.869777872275E+02   -0.18944E-02   -0.19302E-02  5841   0.701E-02    0.123E-01
RMM:  23    -0.869793472181E+02   -0.15600E-02   -0.15852E-02  5737   0.632E-02    0.884E-02
RMM:  24    -0.869806596718E+02   -0.13125E-02   -0.13046E-02  5250   0.543E-02    0.855E-02
RMM:  25    -0.869817548537E+02   -0.10952E-02   -0.10907E-02  4955   0.476E-02    0.898E-02
RMM:  26    -0.869826747181E+02   -0.91986E-03   -0.92235E-03  4509   0.430E-02    0.910E-02
RMM:  27    -0.869834610364E+02   -0.78632E-03   -0.78581E-03  3838   0.391E-02    0.943E-02
RMM:  28    -0.869841313468E+02   -0.67031E-03   -0.67040E-03  3593   0.360E-02    0.971E-02
RMM:  29    -0.869847069974E+02   -0.57565E-03   -0.57506E-03  3424   0.334E-02    0.100E-01
RMM:  30    -0.869851995123E+02   -0.49251E-03   -0.49293E-03  3355   0.312E-02    0.103E-01
RMM:  31    -0.869856272527E+02   -0.42774E-03   -0.42883E-03  3237   0.292E-02    0.104E-01
RMM:  32    -0.869859927384E+02   -0.36549E-03   -0.37009E-03  3618   0.279E-02    0.104E-01
RMM:  33    -0.869863164244E+02   -0.32369E-03   -0.31983E-03  4068   0.267E-02    0.107E-01
RMM:  34    -0.869866013691E+02   -0.28494E-03   -0.28124E-03  3424   0.252E-02    0.110E-01
RMM:  35    -0.869868410654E+02   -0.23970E-03   -0.25434E-03  3613   0.244E-02    0.107E-01
RMM:  36    -0.869870797514E+02   -0.23869E-03   -0.23105E-03  3110   0.233E-02    0.112E-01
RMM:  37    -0.869872815390E+02   -0.20179E-03   -0.21314E-03  2869   0.224E-02    0.111E-01
RMM:  38    -0.869874761457E+02   -0.19461E-03   -0.19702E-03  2563   0.215E-02    0.111E-01
RMM:  39    -0.869876404210E+02   -0.16428E-03   -0.18460E-03  4153   0.225E-02    0.103E-01
RMM:  40    -0.869877861109E+02   -0.14569E-03   -0.17420E-03  4616   0.231E-02    0.902E-02
RMM:  41    -0.869879452390E+02   -0.15913E-03   -0.16144E-03  3436   0.197E-02    0.913E-02
RMM:  42    -0.869880958533E+02   -0.15061E-03   -0.15298E-03  2779   0.191E-02    0.918E-02
RMM:  43    -0.869882376236E+02   -0.14177E-03   -0.14589E-03  2398   0.185E-02    0.919E-02
RMM:  44    -0.869883719503E+02   -0.13433E-03   -0.13823E-03  2387   0.184E-02    0.918E-02
RMM:  45    -0.869885008464E+02   -0.12890E-03   -0.13207E-03  2271   0.181E-02    0.921E-02
RMM:  46    -0.869886220582E+02   -0.12121E-03   -0.12543E-03  2408   0.179E-02    0.915E-02
RMM:  47    -0.869887406925E+02   -0.11863E-03   -0.12179E-03  2411   0.174E-02    0.915E-02
RMM:  48    -0.869888511302E+02   -0.11044E-03   -0.11500E-03  2745   0.175E-02    0.904E-02
RMM:  49    -0.869889611837E+02   -0.11005E-03   -0.11405E-03  2565   0.173E-02    0.900E-02
RMM:  50    -0.869890680317E+02   -0.10685E-03   -0.11047E-03  2237   0.171E-02    0.901E-02
RMM:  51    -0.869891766798E+02   -0.10865E-03   -0.10863E-03  2312   0.167E-02    0.914E-02
RMM:  52    -0.869892818600E+02   -0.10518E-03   -0.10678E-03  4277   0.193E-02    0.866E-02
RMM:  53    -0.869893808562E+02   -0.98996E-04   -0.10381E-03  3565   0.171E-02    0.859E-02
RMM:  54    -0.869894810170E+02   -0.10016E-03   -0.10408E-03  2464   0.167E-02    0.858E-02
RMM:  55    -0.869895812492E+02   -0.10023E-03   -0.10288E-03  2285   0.164E-02    0.865E-02
RMM:  56    -0.869896810388E+02   -0.99790E-04   -0.10226E-03  2437   0.164E-02    0.870E-02
RMM:  57    -0.869897795005E+02   -0.98462E-04   -0.10361E-03  4309   0.193E-02    0.871E-02
RMM:  58    -0.869898805407E+02   -0.10104E-03   -0.10058E-03  3628   0.170E-02    0.891E-02
RMM:  59    -0.869899802224E+02   -0.99682E-04   -0.10105E-03  2556   0.165E-02    0.903E-02
RMM:  60    -0.869900821730E+02   -0.10195E-03   -0.10056E-03  2565   0.165E-02    0.934E-02
RMM:  61    -0.869901826413E+02   -0.10047E-03   -0.10048E-03  3236   0.167E-02    0.959E-02
RMM:  62    -0.869902781947E+02   -0.95553E-04   -0.99941E-04  4055   0.171E-02    0.940E-02
RMM:  63    -0.869903787562E+02   -0.10056E-03   -0.99582E-04  3090   0.156E-02    0.958E-02
RMM:  64    -0.869904824086E+02   -0.10365E-03   -0.97854E-04  3030   0.164E-02    0.100E-01
RMM:  65    -0.869905772064E+02   -0.94798E-04   -0.99193E-04  2146   0.152E-02    0.100E-01
RMM:  66    -0.869906754140E+02   -0.98208E-04   -0.99483E-04  2661   0.158E-02    0.101E-01
RMM:  67    -0.869907536746E+02   -0.78261E-04   -0.10082E-03  3093   0.163E-02    0.932E-02
RMM:  68    -0.869908498879E+02   -0.96213E-04   -0.99857E-04  2194   0.149E-02    0.935E-02
RMM:  69    -0.869909458184E+02   -0.95930E-04   -0.10131E-03  2332   0.154E-02    0.930E-02
RMM:  70    -0.869910431318E+02   -0.97313E-04   -0.10103E-03  2023   0.148E-02    0.933E-02
RMM:  71    -0.869911417875E+02   -0.98656E-04   -0.10190E-03  1997   0.151E-02    0.938E-02
RMM:  72    -0.869911803685E+02   -0.38581E-04   -0.12832E-03  5615   0.368E-02    0.564E-02
RMM:  73    -0.869914251904E+02   -0.24482E-03   -0.24808E-03  5037   0.226E-02    0.581E-02
RMM:  74    -0.869913949222E+02    0.30268E-04    0.23127E-04  4045   0.184E-02    0.579E-02
RMM:  75    -0.869914543461E+02   -0.59424E-04   -0.65252E-04  3755   0.164E-02    0.576E-02
RMM:  76    -0.869914787640E+02   -0.24418E-04   -0.30556E-04  3939   0.174E-02    0.587E-02
RMM:  77    -0.869915882745E+02   -0.10951E-03   -0.10552E-03  4002   0.173E-02    0.646E-02
RMM:  78    -0.869917037668E+02   -0.11549E-03   -0.11223E-03  3137   0.156E-02    0.676E-02
RMM:  79    -0.869918208571E+02   -0.11709E-03   -0.11728E-03  3302   0.154E-02    0.689E-02
RMM:  80    -0.869919348325E+02   -0.11398E-03   -0.11702E-03  3416   0.161E-02    0.702E-02
RMM:  81    -0.869920481992E+02   -0.11337E-03   -0.11722E-03  3386   0.155E-02    0.718E-02
RMM:  82    -0.869921566633E+02   -0.10846E-03   -0.11706E-03  2199   0.147E-02    0.707E-02
RMM:  83    -0.869922698816E+02   -0.11322E-03   -0.11815E-03  1974   0.146E-02    0.713E-02
RMM:  84    -0.869923837477E+02   -0.11387E-03   -0.11837E-03  1851   0.145E-02    0.719E-02
RMM:  85    -0.869924978022E+02   -0.11405E-03   -0.11790E-03  1909   0.147E-02    0.720E-02
RMM:  86    -0.869926124598E+02   -0.11466E-03   -0.11942E-03  2257   0.146E-02    0.716E-02
RMM:  87    -0.869927216805E+02   -0.10922E-03   -0.11965E-03  3341   0.151E-02    0.687E-02
RMM:  88    -0.869928387397E+02   -0.11706E-03   -0.12082E-03  2082   0.144E-02    0.705E-02
RMM:  89    -0.869929551378E+02   -0.11640E-03   -0.12187E-03  2643   0.146E-02    0.710E-02
RMM:  90    -0.869930725689E+02   -0.11743E-03   -0.12291E-03  1895   0.141E-02    0.707E-02
RMM:  91    -0.869931907968E+02   -0.11823E-03   -0.12407E-03  2160   0.145E-02    0.705E-02
RMM:  92    -0.869933079024E+02   -0.11711E-03   -0.12500E-03  3355   0.153E-02    0.684E-02
RMM:  93    -0.869934261594E+02   -0.11826E-03   -0.12529E-03  2492   0.141E-02    0.676E-02
RMM:  94    -0.869935419404E+02   -0.11578E-03   -0.12675E-03  2899   0.146E-02    0.646E-02
RMM:  95    -0.869936617204E+02   -0.11978E-03   -0.12707E-03  2191   0.141E-02    0.640E-02
RMM:  96    -0.869937852847E+02   -0.12356E-03   -0.12813E-03  1813   0.139E-02    0.647E-02
RMM:  97    -0.869939086450E+02   -0.12336E-03   -0.12932E-03  2369   0.141E-02    0.645E-02
RMM:  98    -0.869940346349E+02   -0.12599E-03   -0.13017E-03  1680   0.137E-02    0.655E-02
RMM:  99    -0.869941602851E+02   -0.12565E-03   -0.13134E-03  1864   0.138E-02    0.657E-02
RMM: 100    -0.869942869122E+02   -0.12663E-03   -0.13236E-03  1922   0.137E-02
   5 F= -.90100000E+02 E0= -.90088474E+02  d E =-.137821E+00
       N       E                     dE             d eps       ncg     rms          rms(c)
DAV:   1    -0.893370764098E+02   -0.23429E+01   -0.23301E+02  5880   0.258E+01    0.207E+01
RMM:   2    -0.908724091828E+02   -0.15353E+01   -0.20082E+01  6333   0.912E+00    0.118E+01
RMM:   3    -0.914599451878E+02   -0.58754E+00   -0.32686E+00  7104   0.371E+00    0.435E+00
RMM:   4    -0.921073233087E+02   -0.64738E+00   -0.19615E+00  6967   0.243E+00    0.614E+00
RMM:   5    -0.911743363638E+02    0.93299E+00   -0.41093E-01  6595   0.133E+00    0.115E+00
RMM:   6    -0.911751011858E+02   -0.76482E-03   -0.17333E-01  8094   0.652E-01    0.633E-01
RMM:   7    -0.911824725854E+02   -0.73714E-02   -0.10784E-01  8376   0.389E-01    0.227E-01
RMM:   8    -0.911885495103E+02   -0.60769E-02   -0.59617E-02  8607   0.263E-01    0.149E-01
RMM:   9    -0.911919476278E+02   -0.33981E-02   -0.37693E-02  8422   0.184E-01    0.103E-01
RMM:  10    -0.911944173627E+02   -0.24697E-02   -0.25130E-02  7628   0.140E-01    0.435E-02
RMM:  11    -0.911961002221E+02   -0.16829E-02   -0.17193E-02  7165   0.111E-01    0.333E-02
RMM:  12    -0.911972727567E+02   -0.11725E-02   -0.11780E-02  6697   0.888E-02    0.244E-02
RMM:  13    -0.911981424335E+02   -0.86968E-03   -0.83056E-03  6465   0.744E-02    0.244E-02
RMM:  14    -0.911987538591E+02   -0.61143E-03   -0.63924E-03  6142   0.614E-02    0.283E-02
RMM:  15    -0.911991781304E+02   -0.42427E-03   -0.43493E-03  5739   0.494E-02    0.159E-02
RMM:  16    -0.911994955177E+02   -0.31739E-03   -0.32266E-03  5291   0.405E-02    0.180E-02
RMM:  17    -0.911997236560E+02   -0.22814E-03   -0.23201E-03  4925   0.340E-02    0.197E-02
RMM:  18    -0.911998969583E+02   -0.17330E-03   -0.17795E-03  4493   0.289E-02    0.291E-02
RMM:  19    -0.912000232964E+02   -0.12634E-03   -0.12527E-03  5379   0.277E-02    0.339E-03
RMM:  20    -0.912001184348E+02   -0.95138E-04   -0.96397E-04  4521   0.213E-02    0.423E-03
RMM:  21    -0.912001878104E+02   -0.69376E-04   -0.70865E-04  3855   0.181E-02    0.735E-03
RMM:  22    -0.912002417685E+02   -0.53958E-04   -0.55587E-04  3630   0.161E-02    0.970E-03
RMM:  23    -0.912002826962E+02   -0.40928E-04   -0.41986E-04  3435   0.145E-02    0.113E-02
RMM:  24    -0.912003139748E+02   -0.31279E-04   -0.32641E-04  3464   0.131E-02    0.101E-02
RMM:  25    -0.912003398315E+02   -0.25857E-04   -0.24680E-04  4530   0.126E-02    0.183E-03
RMM:  26    -0.912003588798E+02   -0.19048E-04   -0.19165E-04  3224   0.103E-02    0.220E-03
RMM:  27    -0.912003733244E+02   -0.14445E-04   -0.14882E-04  2996   0.953E-03    0.179E-03
RMM:  28    -0.912003849157E+02   -0.11591E-04   -0.11720E-04  3243   0.911E-03    0.325E-03
RMM:  29    -0.912003938756E+02   -0.89599E-05   -0.92800E-05  2912   0.850E-03
   6 F= -.94292946E+02 E0= -.94284249E+02  d E =-.433077E+01
       N       E                     dE             d eps       ncg     rms          rms(c)
DAV:   1    -0.354699287820E+02    0.55730E+02   -0.21026E+03  5784   0.819E+01    0.381E+01
RMM:   2    -0.784530368716E+02   -0.42983E+02   -0.49511E+02  7900   0.438E+01    0.238E+01
RMM:   3    -0.906441429120E+02   -0.12191E+02   -0.11597E+02  6773   0.173E+01    0.291E+01
RMM:   4    -0.857306194919E+02    0.49135E+01   -0.53179E+01  7052   0.105E+01    0.195E+01
RMM:   5    -0.803546981736E+02    0.53759E+01   -0.21707E+01  7757   0.575E+00    0.112E+01
RMM:   6    -0.807511530780E+02   -0.39645E+00   -0.91573E+00  7453   0.394E+00    0.101E+01
RMM:   7    -0.814887872938E+02   -0.73763E+00   -0.52418E+00  7403   0.300E+00    0.962E+00
RMM:   8    -0.817389241853E+02   -0.25014E+00   -0.20746E+00  7596   0.201E+00    0.897E+00
RMM:   9    -0.828046751021E+02   -0.10658E+01   -0.49994E+00  7480   0.227E+00    0.115E+01
RMM:  10    -0.818141841787E+02    0.99049E+00   -0.99989E-01  9199   0.140E+00    0.863E+00
RMM:  11    -0.814121899869E+02    0.40199E+00   -0.52704E-01  9523   0.911E-01    0.616E+00
RMM:  12    -0.814116062619E+02    0.58373E-03   -0.91003E-01  7982   0.106E+00    0.662E+00
RMM:  13    -0.812047707925E+02    0.20684E+00   -0.30766E-01  8581   0.730E-01    0.462E+00
RMM:  14    -0.810434633390E+02    0.16131E+00   -0.54998E-01  8988   0.686E-01    0.937E-01
RMM:  15    -0.811179615760E+02   -0.74498E-01   -0.37693E-01  9020   0.558E-01    0.208E+00
RMM:  16    -0.811341221979E+02   -0.16161E-01   -0.15957E-01  8520   0.406E-01    0.215E+00
RMM:  17    -0.811225433077E+02    0.11579E-01   -0.10262E-01  8062   0.325E-01    0.153E+00
RMM:  18    -0.811408433229E+02   -0.18300E-01   -0.76947E-02  7994   0.280E-01    0.199E+00
RMM:  19    -0.811375153207E+02    0.33280E-02   -0.53918E-02  8136   0.299E-01    0.172E+00
RMM:  20    -0.811419150812E+02   -0.43998E-02   -0.45196E-02  8051   0.221E-01    0.157E+00
RMM:  21    -0.811388635077E+02    0.30516E-02   -0.21905E-02  6756   0.155E-01    0.144E+00
RMM:  22    -0.811436872757E+02   -0.48238E-02   -0.17869E-02  6629   0.128E-01    0.167E+00
RMM:  23    -0.811261428989E+02    0.17544E-01   -0.23426E-02  7816   0.172E-01    0.463E-01
RMM:  24    -0.811295938368E+02   -0.34509E-02   -0.14854E-02  6750   0.167E-01    0.651E-01
RMM:  25    -0.811390153482E+02   -0.94215E-02   -0.32769E-02  7137   0.177E-01    0.113E+00
RMM:  26    -0.811578759066E+02   -0.18861E-01   -0.47600E-02  6639   0.160E-01    0.178E+00
RMM:  27    -0.811490840552E+02    0.87919E-02   -0.91051E-03  6006   0.131E-01    0.145E+00
RMM:  28    -0.811374328609E+02    0.11651E-01   -0.10205E-02  6039   0.998E-02    0.936E-01
RMM:  29    -0.811319083941E+02    0.55245E-02   -0.15418E-02  6007   0.952E-02    0.315E-01
RMM:  30    -0.811323888346E+02   -0.48044E-03   -0.71218E-03  5723   0.699E-02    0.110E-01
RMM:  31    -0.811329087692E+02   -0.51993E-03   -0.33001E-03  5380   0.493E-02    0.101E-01
RMM:  32    -0.811331888754E+02   -0.28011E-03   -0.22990E-03  5297   0.396E-02    0.477E-02
RMM:  33    -0.811333869688E+02   -0.19809E-03   -0.16460E-03  5097   0.329E-02    0.278E-02
RMM:  34    -0.811335532049E+02   -0.16624E-03   -0.14277E-03  4946   0.287E-02    0.425E-02
RMM:  35    -0.811336439165E+02   -0.90712E-04   -0.96908E-04  4229   0.233E-02    0.124E-02
RMM:  36    -0.811337220766E+02   -0.78160E-04   -0.77280E-04  3649   0.189E-02    0.133E-02
RMM:  37    -0.811337823421E+02   -0.60265E-04   -0.62639E-04  3139   0.162E-02    0.970E-03
RMM:  38    -0.811338312781E+02   -0.48936E-04   -0.50854E-04  2918   0.140E-02    0.127E-02
RMM:  39    -0.811338736099E+02   -0.42332E-04   -0.41839E-04  2914   0.126E-02    0.121E-02
RMM:  40    -0.811339079129E+02   -0.34303E-04   -0.34843E-04  2788   0.115E-02    0.116E-02
RMM:  41    -0.811339365361E+02   -0.28623E-04   -0.28958E-04  2682   0.106E-02    0.138E-02
RMM:  42    -0.811339598485E+02   -0.23312E-04   -0.23887E-04  2540   0.976E-03    0.161E-02
RMM:  43    -0.811339790225E+02   -0.19174E-04   -0.20244E-04  2394   0.901E-03    0.178E-02
RMM:  44    -0.811339955211E+02   -0.16499E-04   -0.17211E-04  2422   0.858E-03    0.196E-02
RMM:  45    -0.811340091531E+02   -0.13632E-04   -0.14512E-04  2300   0.811E-03    0.209E-02
RMM:  46    -0.811340208261E+02   -0.11673E-04   -0.12608E-04  2217   0.770E-03    0.220E-02
RMM:  47    -0.811340308589E+02   -0.10033E-04   -0.10967E-04  2200   0.747E-03    0.226E-02
RMM:  48    -0.811340391630E+02   -0.83041E-05   -0.92007E-05  2128   0.719E-03
   7 F= -.84298242E+02 E0= -.84293613E+02  d E =0.999470E+01
       N       E                     dE             d eps       ncg     rms          rms(c)
DAV:   1    -0.821852714340E+02   -0.10512E+01   -0.49576E+02  6592   0.426E+01    0.131E+01
RMM:   2    -0.890266212526E+02   -0.68413E+01   -0.47422E+01  6335   0.156E+01    0.146E+01
RMM:   3    -0.873161906486E+02    0.17104E+01   -0.71349E+00  6713   0.583E+00    0.642E+00
RMM:   4    -0.872337808191E+02    0.82410E-01   -0.26020E+00  7158   0.307E+00    0.612E+00
RMM:   5    -0.866856316901E+02    0.54815E+00   -0.93612E-01  7383   0.168E+00    0.415E+00
RMM:   6    -0.866025128943E+02    0.83119E-01   -0.78665E-01  7689   0.114E+00    0.376E+00
RMM:   7    -0.868348301347E+02   -0.23232E+00   -0.36271E-01  7645   0.896E-01    0.723E+00
RMM:   8    -0.865607198810E+02    0.27411E+00   -0.20079E-01  8201   0.652E-01    0.385E+00
RMM:   9    -0.865393887003E+02    0.21331E-01   -0.31405E-02  9313   0.330E-01    0.308E+00
RMM:  10    -0.865141613020E+02    0.25227E-01   -0.23105E-02  8607   0.224E-01    0.219E+00
RMM:  11    -0.864849633109E+02    0.29198E-01   -0.14258E-01  7764   0.442E-01    0.889E-01
RMM:  12    -0.864904394973E+02   -0.54762E-02   -0.25989E-02  8969   0.230E-01    0.936E-01
RMM:  13    -0.864908214083E+02   -0.38191E-03   -0.86348E-03  8308   0.122E-01    0.942E-01
RMM:  14    -0.864943857403E+02   -0.35643E-02   -0.10899E-02  8072   0.116E-01    0.117E+00
RMM:  15    -0.864937529780E+02    0.63276E-03   -0.27687E-03  7086   0.731E-02    0.113E+00
RMM:  16    -0.864867495394E+02    0.70034E-02   -0.17934E-02  7893   0.187E-01    0.592E-01
RMM:  17    -0.864883171778E+02   -0.15676E-02   -0.29748E-02  7990   0.212E-01    0.796E-01
RMM:  18    -0.864881519472E+02    0.16523E-03   -0.26696E-03  6852   0.893E-02    0.682E-01
RMM:  19    -0.864859856991E+02    0.21662E-02   -0.27752E-03  7059   0.779E-02    0.352E-01
RMM:  20    -0.864856398414E+02    0.34586E-03   -0.29870E-03  6875   0.675E-02    0.118E-01
RMM:  21    -0.864857711129E+02   -0.13127E-03   -0.42299E-04  5845   0.340E-02    0.118E-01
RMM:  22    -0.864858938341E+02   -0.12272E-03   -0.13106E-03  6192   0.473E-02    0.551E-02
RMM:  23    -0.864861598402E+02   -0.26601E-03   -0.11259E-03  5955   0.387E-02    0.180E-01
RMM:  24    -0.864860728042E+02    0.87036E-04   -0.18618E-04  5574   0.227E-02    0.121E-01
RMM:  25    -0.864861762705E+02   -0.10347E-03   -0.12010E-03  6203   0.460E-02    0.831E-02
RMM:  26    -0.864861514092E+02    0.24861E-04   -0.11213E-04  5444   0.239E-02    0.496E-02
RMM:  27    -0.864861519622E+02   -0.55298E-06   -0.47306E-05  4040   0.964E-03
   8 F= -.89616146E+02 E0= -.89611792E+02  d E =0.467680E+01
       N       E                     dE             d eps       ncg     rms          rms(c)
DAV:   1    -0.883661395621E+02   -0.18800E+01   -0.22737E+02  5856   0.286E+01    0.759E+00
RMM:   2    -0.904258357790E+02   -0.20597E+01   -0.16509E+01  6339   0.895E+00    0.951E+00
RMM:   3    -0.902655217590E+02    0.16031E+00   -0.26644E+00  7074   0.343E+00    0.416E+00
RMM:   4    -0.901573040832E+02    0.10822E+00   -0.96804E-01  7631   0.182E+00    0.333E+00
RMM:   5    -0.899995648508E+02    0.15774E+00   -0.21060E-01  7640   0.891E-01    0.221E+00
RMM:   6    -0.900229199227E+02   -0.23355E-01   -0.28794E-01  7936   0.690E-01    0.190E+00
RMM:   7    -0.901022875519E+02   -0.79368E-01   -0.14644E-01  7591   0.534E-01    0.413E+00
RMM:   8    -0.899541969181E+02    0.14809E+00   -0.50945E-02  8314   0.356E-01    0.139E+00
RMM:   9    -0.899629811898E+02   -0.87843E-02   -0.13991E-02  8916   0.185E-01    0.112E+00
RMM:  10    -0.899569014492E+02    0.60797E-02   -0.16046E-02  8165   0.181E-01    0.357E-01
RMM:  11    -0.899572787632E+02   -0.37731E-03   -0.11737E-02  8247   0.143E-01    0.284E-01
RMM:  12    -0.899576656192E+02   -0.38686E-03   -0.32855E-03  7640   0.810E-02    0.192E-01
RMM:  13    -0.899578873857E+02   -0.22177E-03   -0.18668E-03  6948   0.552E-02    0.202E-01
RMM:  14    -0.899579172297E+02   -0.29844E-04   -0.10777E-03  6742   0.460E-02    0.958E-02
RMM:  15    -0.899581108418E+02   -0.19361E-03   -0.11694E-03  6778   0.482E-02    0.127E-01
RMM:  16    -0.899581540415E+02   -0.43200E-04   -0.51116E-04  6220   0.320E-02    0.644E-02
RMM:  17    -0.899582456692E+02   -0.91628E-04   -0.36293E-04  5731   0.244E-02    0.272E-02
RMM:  18    -0.899584274056E+02   -0.18174E-03   -0.26414E-04  5286   0.201E-02    0.195E-02
RMM:  19    -0.899585692972E+02   -0.14189E-03   -0.18891E-04  5076   0.166E-02    0.306E-02
RMM:  20    -0.899586292391E+02   -0.59942E-04   -0.12835E-04  4269   0.129E-02    0.254E-02
RMM:  21    -0.899586703885E+02   -0.41149E-04   -0.95475E-05  4259   0.114E-02    0.127E-02
RMM:  22    -0.899586848249E+02   -0.14436E-04   -0.63497E-05  3641   0.934E-03    0.119E-02
RMM:  23    -0.899586954793E+02   -0.10654E-04   -0.44039E-05  3277   0.808E-03    0.124E-02
RMM:  24    -0.899587116130E+02   -0.16134E-04   -0.36144E-05  3248   0.760E-03    0.106E-02
RMM:  25    -0.899587162763E+02   -0.46633E-05   -0.26290E-05  2897   0.675E-03
   9 F= -.93076329E+02 E0= -.93069713E+02  d E =0.121662E+01
       N       E                     dE             d eps       ncg     rms          rms(c)
DAV:   1    -0.912379495314E+02   -0.12792E+01   -0.21478E+02  5920   0.243E+01    0.760E+00
RMM:   2    -0.926091874841E+02   -0.13712E+01   -0.13431E+01  6352   0.753E+00    0.644E+00
RMM:   3    -0.929311822608E+02   -0.32199E+00   -0.23435E+00  6823   0.299E+00    0.424E+00
RMM:   4    -0.926998364487E+02    0.23135E+00   -0.81133E-01  7168   0.172E+00    0.347E+00
RMM:   5    -0.925685087614E+02    0.13133E+00   -0.19748E-01  7211   0.848E-01    0.253E+00
RMM:   6    -0.926099390779E+02   -0.41430E-01   -0.17900E-01  7871   0.643E-01    0.185E+00
RMM:   7    -0.925479255575E+02    0.62014E-01   -0.66692E-02  7635   0.430E-01    0.908E-01
RMM:   8    -0.925471028534E+02    0.82270E-03   -0.18514E-02  8653   0.214E-01    0.581E-01
RMM:   9    -0.925473436960E+02   -0.24084E-03   -0.94010E-03  8303   0.138E-01    0.234E-01
RMM:  10    -0.925478027442E+02   -0.45905E-03   -0.61147E-03  7494   0.118E-01    0.153E-01
RMM:  11    -0.925480108644E+02   -0.20812E-03   -0.27635E-03  7227   0.749E-02    0.977E-02
RMM:  12    -0.925482201490E+02   -0.20928E-03   -0.21138E-03  6707   0.584E-02    0.249E-02
RMM:  13    -0.925485512632E+02   -0.33111E-03   -0.13608E-03  6441   0.474E-02    0.612E-02
RMM:  14    -0.925487241540E+02   -0.17289E-03   -0.79577E-04  6063   0.364E-02    0.927E-03
RMM:  15    -0.925489774834E+02   -0.25333E-03   -0.60518E-04  5585   0.283E-02    0.233E-02
RMM:  16    -0.925491349213E+02   -0.15744E-03   -0.41980E-04  5125   0.222E-02    0.546E-03
RMM:  17    -0.925492509334E+02   -0.11601E-03   -0.27717E-04  4636   0.178E-02    0.338E-03
RMM:  18    -0.925492976975E+02   -0.46764E-04   -0.18490E-04  4181   0.145E-02    0.282E-03
RMM:  19    -0.925493308942E+02   -0.33197E-04   -0.13268E-04  3871   0.123E-02    0.324E-03
RMM:  20    -0.925493470391E+02   -0.16145E-04   -0.92985E-05  3517   0.106E-02    0.357E-03
RMM:  21    -0.925493598282E+02   -0.12789E-04   -0.69810E-05  3506   0.955E-03    0.927E-04
RMM:  22    -0.925493650480E+02   -0.52198E-05   -0.50525E-05  2960   0.836E-03
  10 F= -.95654211E+02 E0= -.95645242E+02  d E =-.136127E+01
       N       E                     dE             d eps       ncg     rms          rms(c)
DAV:   1    -0.925374428082E+02    0.11917E-01   -0.58144E+01  6616   0.135E+01    0.457E+00
RMM:   2    -0.928080658466E+02   -0.27062E+00   -0.31042E+00  6357   0.363E+00    0.357E+00
RMM:   3    -0.929865289381E+02   -0.17846E+00   -0.50349E-01  7082   0.154E+00    0.255E+00
RMM:   4    -0.928432475558E+02    0.14328E+00   -0.21197E-01  7091   0.950E-01    0.164E+00
RMM:   5    -0.928112492578E+02    0.31998E-01   -0.46034E-02  7517   0.455E-01    0.817E-01
RMM:   6    -0.928063934853E+02    0.48558E-02   -0.16643E-02  7678   0.261E-01    0.224E-01
RMM:   7    -0.928057425172E+02    0.65097E-03   -0.63218E-03  8274   0.145E-01    0.909E-02
RMM:   8    -0.928060189896E+02   -0.27647E-03   -0.29901E-03  7872   0.855E-02    0.626E-02
RMM:   9    -0.928062112295E+02   -0.19224E-03   -0.15406E-03  6958   0.606E-02    0.224E-02
RMM:  10    -0.928063489850E+02   -0.13776E-03   -0.91998E-04  6505   0.439E-02    0.113E-02
RMM:  11    -0.928064846749E+02   -0.13569E-03   -0.58765E-04  6164   0.337E-02    0.927E-03
RMM:  12    -0.928066455438E+02   -0.16087E-03   -0.37867E-04  5965   0.267E-02    0.523E-03
RMM:  13    -0.928067644276E+02   -0.11888E-03   -0.26425E-04  5505   0.211E-02    0.292E-03
RMM:  14    -0.928068555889E+02   -0.91161E-04   -0.17002E-04  4908   0.167E-02    0.204E-03
RMM:  15    -0.928069045877E+02   -0.48999E-04   -0.12412E-04  4596   0.139E-02    0.128E-03
RMM:  16    -0.928069236585E+02   -0.19071E-04   -0.74543E-05  4014   0.112E-02    0.143E-03
RMM:  17    -0.928069345070E+02   -0.10849E-04   -0.56072E-05  3688   0.974E-03    0.176E-03
RMM:  18    -0.928069375355E+02   -0.30285E-05   -0.38837E-05  3367   0.857E-03
  11 F= -.95905444E+02 E0= -.95896203E+02  d E =-.161250E+01
       N       E                     dE             d eps       ncg     rms          rms(c)
DAV:   1    -0.928313356963E+02   -0.24401E-01   -0.76971E+00  5800   0.444E+00    0.189E+00
RMM:   2    -0.928586972750E+02   -0.27362E-01   -0.36258E-01  6391   0.106E+00    0.131E+00
RMM:   3    -0.929056265314E+02   -0.46929E-01   -0.80360E-02  6763   0.545E-01    0.121E+00
RMM:   4    -0.928632815296E+02    0.42345E-01   -0.23746E-02  6841   0.323E-01    0.692E-01
RMM:   5    -0.928610463785E+02    0.22352E-02   -0.75330E-03  7475   0.162E-01    0.287E-01
RMM:   6    -0.928607567525E+02    0.28963E-03   -0.26465E-03  6909   0.869E-02    0.123E-01
RMM:   7    -0.928607523514E+02    0.44011E-05   -0.11671E-03  6200   0.539E-02    0.397E-02
RMM:   8    -0.928608638104E+02   -0.11146E-03   -0.69958E-04  5952   0.362E-02    0.274E-02
RMM:   9    -0.928609436001E+02   -0.79790E-04   -0.36655E-04  5498   0.236E-02    0.179E-02
RMM:  10    -0.928610123168E+02   -0.68717E-04   -0.21603E-04  5027   0.177E-02    0.106E-02
RMM:  11    -0.928610733642E+02   -0.61047E-04   -0.13237E-04  4679   0.138E-02    0.379E-03
RMM:  12    -0.928610964130E+02   -0.23049E-04   -0.80659E-05  3938   0.102E-02    0.300E-03
RMM:  13    -0.928611307971E+02   -0.34384E-04   -0.55942E-05  3911   0.915E-03    0.178E-03
RMM:  14    -0.928611375181E+02   -0.67211E-05   -0.29372E-05  2992   0.700E-03
  12 F= -.95961882E+02 E0= -.95952649E+02  d E =-.166894E+01
       N       E                     dE             d eps       ncg     rms          rms(c)
DAV:   1    -0.928653205572E+02   -0.41898E-02   -0.32275E-01  5936   0.920E-01    0.363E-01
RMM:   2    -0.928664554940E+02   -0.11349E-02   -0.14301E-02  5908   0.208E-01    0.264E-01
RMM:   3    -0.928683068631E+02   -0.18514E-02   -0.26791E-03  6393   0.104E-01    0.242E-01
RMM:   4    -0.928665429358E+02    0.17639E-02   -0.87161E-04  6389   0.630E-02    0.114E-01
RMM:   5    -0.928664623869E+02    0.80549E-04   -0.19325E-04  5611   0.292E-02    0.444E-02
RMM:   6    -0.928664573840E+02    0.50029E-05   -0.72738E-05  4999   0.160E-02
  13 F= -.95966738E+02 E0= -.95957495E+02  d E =-.167379E+01
       N       E                     dE             d eps       ncg     rms          rms(c)
DAV:   1    -0.921330037952E+02    0.73346E+00   -0.16439E+02  5640   0.241E+01    0.136E+01
RMM:   2    -0.929874892082E+02   -0.85449E+00   -0.98613E+00  6525   0.618E+00    0.703E+00
RMM:   3    -0.942306326520E+02   -0.12431E+01   -0.23385E+00  7068   0.314E+00    0.580E+00
RMM:   4    -0.931545375540E+02    0.10761E+01   -0.47419E-01  7008   0.164E+00    0.228E+00
RMM:   5    -0.931376314196E+02    0.16906E-01   -0.14593E-01  8620   0.851E-01    0.811E-01
RMM:   6    -0.931325134043E+02    0.51180E-02   -0.50963E-02  8065   0.463E-01    0.596E-01
RMM:   7    -0.931354885581E+02   -0.29752E-02   -0.25383E-02  9022   0.273E-01    0.584E-01
RMM:   8    -0.931362878094E+02   -0.79925E-03   -0.12696E-02  8781   0.180E-01    0.127E-01
RMM:   9    -0.931366208424E+02   -0.33303E-03   -0.65319E-03  8430   0.124E-01    0.455E-02
RMM:  10    -0.931370421689E+02   -0.42133E-03   -0.38842E-03  7832   0.889E-02    0.468E-02
RMM:  11    -0.931372996117E+02   -0.25744E-03   -0.23311E-03  7360   0.662E-02    0.656E-02
RMM:  12    -0.931374952819E+02   -0.19567E-03   -0.14241E-03  7292   0.519E-02    0.387E-02
RMM:  13    -0.931376215676E+02   -0.12629E-03   -0.85299E-04  6798   0.392E-02    0.371E-02
RMM:  14    -0.931377035018E+02   -0.81934E-04   -0.47456E-04  6394   0.308E-02    0.311E-02
RMM:  15    -0.931377885666E+02   -0.85065E-04   -0.36604E-04  6034   0.246E-02    0.200E-02
RMM:  16    -0.931378386004E+02   -0.50034E-04   -0.19691E-04  5483   0.194E-02    0.123E-02
RMM:  17    -0.931378808046E+02   -0.42204E-04   -0.13930E-04  5246   0.159E-02    0.359E-03
RMM:  18    -0.931378998049E+02   -0.19000E-04   -0.85944E-05  4344   0.124E-02    0.126E-03
RMM:  19    -0.931379075417E+02   -0.77368E-05   -0.52121E-05  3754   0.102E-02
  14 F= -.96251645E+02 E0= -.96240473E+02  d E =-.284907E+00
       N       E                     dE             d eps       ncg     rms          rms(c)
DAV:   1    -0.931013002776E+02    0.36600E-01   -0.14928E+01  5680   0.741E+00    0.282E+00
RMM:   2    -0.931768726670E+02   -0.75572E-01   -0.88085E-01  6580   0.175E+00    0.166E+00
RMM:   3    -0.932583715766E+02   -0.81499E-01   -0.16480E-01  7654   0.917E-01    0.164E+00
RMM:   4    -0.931878213825E+02    0.70550E-01   -0.28979E-02  7272   0.441E-01    0.453E-01
RMM:   5    -0.931883292255E+02   -0.50784E-03   -0.98582E-03  8412   0.223E-01    0.298E-01
RMM:   6    -0.931875138189E+02    0.81541E-03   -0.34185E-03  8195   0.121E-01    0.146E-01
RMM:   7    -0.931875662037E+02   -0.52385E-04   -0.17933E-03  7875   0.780E-02    0.411E-02
RMM:   8    -0.931876596472E+02   -0.93444E-04   -0.92765E-04  7197   0.496E-02    0.262E-02
RMM:   9    -0.931877162101E+02   -0.56563E-04   -0.47727E-04  6621   0.347E-02    0.144E-02
RMM:  10    -0.931877526731E+02   -0.36463E-04   -0.28329E-04  6010   0.254E-02    0.993E-03
RMM:  11    -0.931877799523E+02   -0.27279E-04   -0.17403E-04  5638   0.198E-02    0.300E-03
RMM:  12    -0.931877944739E+02   -0.14522E-04   -0.10618E-04  5114   0.152E-02    0.239E-03
RMM:  13    -0.931878066783E+02   -0.12204E-04   -0.71118E-05  4650   0.123E-02    0.121E-03
RMM:  14    -0.931878143093E+02   -0.76310E-05   -0.45809E-05  4111   0.101E-02
  15 F= -.96297216E+02 E0= -.96286485E+02  d E =-.330478E+00
       N       E                     dE             d eps       ncg     rms          rms(c)
DAV:   1    -0.932295990316E+02   -0.41792E-01   -0.10638E+01  5744   0.762E+00    0.110E+00
RMM:   2    -0.932524314553E+02   -0.22832E-01   -0.23978E-01  6229   0.168E+00    0.541E-01
RMM:   3    -0.932755095744E+02   -0.23078E-01   -0.95161E-02  8120   0.944E-01    0.901E-01
RMM:   4    -0.932588145371E+02    0.16695E-01   -0.11055E-02  7995   0.333E-01    0.370E-01
RMM:   5    -0.932591390442E+02   -0.32451E-03   -0.26137E-03  8624   0.139E-01    0.270E-01
RMM:   6    -0.932587697795E+02    0.36926E-03   -0.95330E-04  7067   0.809E-02    0.874E-02
RMM:   7    -0.932587484237E+02    0.21356E-04   -0.45103E-04  7191   0.523E-02    0.220E-02
RMM:   8    -0.932587723460E+02   -0.23922E-04   -0.24279E-04  6242   0.315E-02    0.153E-02
RMM:   9    -0.932587875407E+02   -0.15195E-04   -0.12588E-04  5525   0.208E-02    0.141E-02
RMM:  10    -0.932587985242E+02   -0.10983E-04   -0.67949E-05  4926   0.148E-02    0.467E-03
RMM:  11    -0.932588056025E+02   -0.70783E-05   -0.41934E-05  4474   0.113E-02
  16 F= -.96369092E+02 E0= -.96357738E+02  d E =-.718762E-01
       N       E                     dE             d eps       ncg     rms          rms(c)
DAV:   1    -0.931895597293E+02    0.69239E-01   -0.41351E+01  5640   0.152E+01    0.218E+00
RMM:   2    -0.932874755246E+02   -0.97916E-01   -0.10256E+00  6225   0.336E+00    0.106E+00
RMM:   3    -0.933792505334E+02   -0.91775E-01   -0.42383E-01  8066   0.204E+00    0.174E+00
RMM:   4    -0.933163906412E+02    0.62860E-01   -0.48733E-02  8128   0.688E-01    0.788E-01
RMM:   5    -0.933179976255E+02   -0.16070E-02   -0.97954E-03  8631   0.274E-01    0.619E-01
RMM:   6    -0.933163937905E+02    0.16038E-02   -0.38989E-03  7320   0.175E-01    0.212E-01
RMM:   7    -0.933161892744E+02    0.20452E-03   -0.19072E-03  7635   0.116E-01    0.813E-02
RMM:   8    -0.933162661581E+02   -0.76884E-04   -0.10494E-03  7669   0.693E-02    0.316E-02
RMM:   9    -0.933163248188E+02   -0.58661E-04   -0.50688E-04  6693   0.401E-02    0.306E-02
RMM:  10    -0.933163620000E+02   -0.37181E-04   -0.24574E-04  6034   0.300E-02    0.126E-02
RMM:  11    -0.933163930793E+02   -0.31079E-04   -0.16472E-04  5580   0.203E-02    0.468E-03
RMM:  12    -0.933164073408E+02   -0.14261E-04   -0.10837E-04  4998   0.152E-02    0.375E-03
RMM:  13    -0.933164183004E+02   -0.10960E-04   -0.65585E-05  4545   0.121E-02    0.286E-03
RMM:  14    -0.933164271826E+02   -0.88821E-05   -0.48116E-05  4280   0.102E-02
  17 F= -.96428758E+02 E0= -.96416681E+02  d E =-.131542E+00
       N       E                     dE             d eps       ncg     rms          rms(c)
DAV:   1    -0.933322110695E+02   -0.15793E-01   -0.52865E-01  6088   0.168E+00    0.272E-01
RMM:   2    -0.933335609025E+02   -0.13498E-02   -0.11566E-02  6071   0.365E-01    0.147E-01
RMM:   3    -0.933344929143E+02   -0.93201E-03   -0.42524E-03  7871   0.203E-01    0.227E-01
RMM:   4    -0.933335107635E+02    0.98215E-03   -0.59379E-04  7301   0.750E-02    0.828E-02
RMM:   5    -0.933335058115E+02    0.49520E-05   -0.18658E-04  6545   0.350E-02    0.507E-02
RMM:   6    -0.933334895423E+02    0.16269E-04   -0.68518E-05  5433   0.212E-02    0.199E-02
RMM:   7    -0.933334918689E+02   -0.23266E-05   -0.39031E-05  4559   0.140E-02
  18 F= -.96446012E+02 E0= -.96433843E+02  d E =-.172540E-01
       N       E                     dE             d eps       ncg     rms          rms(c)
DAV:   1    -0.933599571447E+02   -0.26468E-01   -0.47662E+00  5728   0.506E+00    0.811E-01
RMM:   2    -0.933720422918E+02   -0.12085E-01   -0.10618E-01  6207   0.111E+00    0.435E-01
RMM:   3    -0.933806932937E+02   -0.86510E-02   -0.40346E-02  7968   0.624E-01    0.672E-01
RMM:   4    -0.933719339770E+02    0.87593E-02   -0.51656E-03  7949   0.227E-01    0.250E-01
RMM:   5    -0.933718814913E+02    0.52486E-04   -0.14090E-03  8291   0.101E-01    0.154E-01
RMM:   6    -0.933717272339E+02    0.15426E-03   -0.44797E-04  7026   0.563E-02    0.621E-02
RMM:   7    -0.933717368860E+02   -0.96521E-05   -0.24281E-04  6668   0.344E-02    0.126E-02
RMM:   8    -0.933717491271E+02   -0.12241E-04   -0.12259E-04  5554   0.222E-02    0.776E-03
RMM:   9    -0.933717579467E+02   -0.88196E-05   -0.66613E-05  4949   0.151E-02
  19 F= -.96484874E+02 E0= -.96472479E+02  d E =-.561162E-01
       N       E                     dE             d eps       ncg     rms          rms(c)
DAV:   1    -0.933354835007E+02    0.36266E-01   -0.19129E+01  5480   0.102E+01    0.160E+00
RMM:   2    -0.933841224285E+02   -0.48639E-01   -0.45130E-01  6250   0.226E+00    0.841E-01
RMM:   3    -0.934208109204E+02   -0.36688E-01   -0.17672E-01  8003   0.133E+00    0.129E+00
RMM:   4    -0.933873287268E+02    0.33482E-01   -0.21994E-02  8020   0.468E-01    0.509E-01
RMM:   5    -0.933871919350E+02    0.13679E-03   -0.54177E-03  8771   0.202E-01    0.326E-01
RMM:   6    -0.933866125130E+02    0.57942E-03   -0.17850E-03  7603   0.115E-01    0.129E-01
RMM:   7    -0.933866126122E+02   -0.99211E-07   -0.89791E-04  7797   0.705E-02    0.255E-02
RMM:   8    -0.933866620486E+02   -0.49436E-04   -0.50301E-04  6982   0.438E-02    0.144E-02
RMM:   9    -0.933866942706E+02   -0.32222E-04   -0.25507E-04  6317   0.283E-02    0.129E-02
RMM:  10    -0.933867167042E+02   -0.22434E-04   -0.14443E-04  5720   0.203E-02    0.771E-03
RMM:  11    -0.933867418280E+02   -0.25124E-04   -0.96653E-05  5274   0.160E-02    0.413E-03
RMM:  12    -0.933867550983E+02   -0.13270E-04   -0.57880E-05  4725   0.122E-02    0.227E-03
RMM:  13    -0.933867694230E+02   -0.14325E-04   -0.44036E-05  4362   0.973E-03    0.178E-03
RMM:  14    -0.933867825583E+02   -0.13135E-04   -0.30682E-05  4084   0.819E-03    0.803E-04
RMM:  15    -0.933867859900E+02   -0.34317E-05   -0.18430E-05  3374   0.681E-03
  20 F= -.96501225E+02 E0= -.96488573E+02  d E =-.724671E-01
       N       E                     dE             d eps       ncg     rms          rms(c)
DAV:   1    -0.933866950092E+02    0.87549E-04   -0.19702E+00  5696   0.323E+00    0.486E-01
RMM:   2    -0.933912190766E+02   -0.45241E-02   -0.41956E-02  6244   0.698E-01    0.262E-01
RMM:   3    -0.933945558867E+02   -0.33368E-02   -0.15872E-02  7692   0.383E-01    0.408E-01
RMM:   4    -0.933913974964E+02    0.31584E-02   -0.19104E-03  7705   0.140E-01    0.157E-01
RMM:   5    -0.933913882938E+02    0.92026E-05   -0.50291E-04  7688   0.623E-02    0.960E-02
RMM:   6    -0.933913247992E+02    0.63495E-04   -0.15934E-04  6411   0.335E-02    0.384E-02
RMM:   7    -0.933913268304E+02   -0.20312E-05   -0.79540E-05  5532   0.200E-02
  21 F= -.96505321E+02 E0= -.96492726E+02  d E =-.765633E-01
       N       E                     dE             d eps       ncg     rms          rms(c)
DAV:   1    -0.933912909845E+02    0.33815E-04   -0.98999E-03  6136   0.230E-01    0.371E-02
RMM:   2    -0.933913148836E+02   -0.23899E-04   -0.19748E-04  5368   0.494E-02    0.197E-02
RMM:   3    -0.933913365894E+02   -0.21706E-04   -0.74846E-05  5210   0.275E-02    0.312E-02
RMM:   4    -0.933913192065E+02    0.17383E-04   -0.15539E-05  3378   0.142E-02    0.988E-03
RMM:   5    -0.933913206706E+02   -0.14642E-05   -0.55846E-06  2919   0.791E-03
  22 F= -.96505346E+02 E0= -.96492751E+02  d E =-.765882E-01
       N       E                     dE             d eps       ncg     rms          rms(c)
DAV:   1    -0.933913300542E+02   -0.10848E-04   -0.82703E-04  6032   0.680E-02    0.106E-02
RMM:   2    -0.933913326676E+02   -0.26134E-05   -0.21814E-05  3394   0.152E-02
  23 F= -.96505349E+02 E0= -.96492755E+02  d E =-.765912E-01
       N       E                     dE             d eps       ncg     rms          rms(c)
DAV:   1    -0.933913292025E+02    0.85172E-06   -0.14923E-04  5768   0.404E-02    0.702E-03
RMM:   2    -0.933913412406E+02   -0.12038E-04   -0.13246E-05  3303   0.123E-02    0.172E-02
RMM:   3    -0.933913295316E+02    0.11709E-04   -0.42521E-06  2757   0.662E-03    0.142E-03
RMM:   4    -0.933913298561E+02   -0.32454E-06   -0.25276E-06  2413   0.542E-03
  24 F= -.96505350E+02 E0= -.96492751E+02  d E =-.765923E-01
       N       E                     dE             d eps       ncg     rms          rms(c)
DAV:   1    -0.933913319081E+02   -0.23765E-05   -0.28640E-05  5400   0.144E-02    0.228E-03
RMM:   2    -0.933913323159E+02   -0.40780E-06   -0.11066E-06  2069   0.341E-03
  25 F= -.96505351E+02 E0= -.96492753E+02  d E =-.765931E-01
       N       E                     dE             d eps       ncg     rms          rms(c)
DAV:   1    -0.933920423693E+02   -0.71046E-03   -0.20331E-02  5728   0.357E-01    0.474E-02
RMM:   2    -0.933920987125E+02   -0.56343E-04   -0.65911E-04  5986   0.786E-02    0.249E-02
RMM:   3    -0.933921331859E+02   -0.34473E-04   -0.15272E-04  6808   0.398E-02    0.321E-02
RMM:   4    -0.933921117385E+02    0.21447E-04   -0.27808E-05  4404   0.179E-02    0.132E-02
RMM:   5    -0.933921125154E+02   -0.77686E-06   -0.90587E-06  3153   0.982E-03
  26 F= -.96506131E+02 E0= -.96493551E+02  d E =-.779813E-03
       N       E                     dE             d eps       ncg     rms          rms(c)
DAV:   1    -0.933935115000E+02   -0.13998E-02   -0.18350E-01  5552   0.107E+00    0.145E-01
RMM:   2    -0.933940513008E+02   -0.53980E-03   -0.59646E-03  6283   0.237E-01    0.781E-02
RMM:   3    -0.933943861930E+02   -0.33489E-03   -0.14006E-03  7936   0.120E-01    0.110E-01
RMM:   4    -0.933941341822E+02    0.25201E-03   -0.20909E-04  7265   0.461E-02    0.438E-02
RMM:   5    -0.933941408766E+02   -0.66944E-05   -0.65579E-05  6066   0.227E-02
  27 F= -.96508159E+02 E0= -.96495637E+02  d E =-.280847E-02
       N       E                     dE             d eps       ncg     rms          rms(c)
DAV:   1    -0.933942682564E+02   -0.13407E-03   -0.73315E-01  5472   0.215E+00    0.289E-01
RMM:   2    -0.933964718865E+02   -0.22036E-02   -0.23993E-02  6492   0.477E-01    0.157E-01
RMM:   3    -0.933977650866E+02   -0.12932E-02   -0.55986E-03  8317   0.242E-01    0.218E-01
RMM:   4    -0.933967723269E+02    0.99276E-03   -0.83638E-04  7917   0.921E-02    0.888E-02
RMM:   5    -0.933968047649E+02   -0.32438E-04   -0.27697E-04  7486   0.447E-02    0.523E-02
RMM:   6    -0.933967985129E+02    0.62520E-05   -0.12147E-04  6450   0.270E-02    0.200E-02
RMM:   7    -0.933968020867E+02   -0.35737E-05   -0.65796E-05  5466   0.175E-02
  28 F= -.96510827E+02 E0= -.96498365E+02  d E =-.547609E-02
       N       E                     dE             d eps       ncg     rms          rms(c)
DAV:   1    -0.933863655615E+02    0.10433E-01   -0.29311E+00  5440   0.429E+00    0.569E-01
RMM:   2    -0.933951582061E+02   -0.87926E-02   -0.96446E-02  6646   0.951E-01    0.307E-01
RMM:   3    -0.934002266743E+02   -0.50685E-02   -0.22351E-02  8390   0.482E-01    0.422E-01
RMM:   4    -0.933965145815E+02    0.37121E-02   -0.32774E-03  8310   0.181E-01    0.177E-01
RMM:   5    -0.933966193373E+02   -0.10476E-03   -0.10278E-03  8251   0.861E-02    0.106E-01
RMM:   6    -0.933965959361E+02    0.23401E-04   -0.43355E-04  7260   0.501E-02    0.389E-02
RMM:   7    -0.933966079132E+02   -0.11977E-04   -0.21736E-04  6729   0.321E-02    0.113E-02
RMM:   8    -0.933966211843E+02   -0.13271E-04   -0.12198E-04  5957   0.215E-02    0.876E-03
RMM:   9    -0.933966289975E+02   -0.78131E-05   -0.68485E-05  5278   0.152E-02
  29 F= -.96510690E+02 E0= -.96498415E+02  d E =-.533970E-02
       N       E                     dE             d eps       ncg     rms          rms(c)
DAV:   1    -0.933948102341E+02    0.18110E-02   -0.83495E-01  5440   0.228E+00    0.303E-01
RMM:   2    -0.933972658481E+02   -0.24556E-02   -0.26764E-02  6454   0.501E-01    0.163E-01
RMM:   3    -0.933987365305E+02   -0.14707E-02   -0.62140E-03  8017   0.251E-01    0.229E-01
RMM:   4    -0.933976283565E+02    0.11082E-02   -0.84268E-04  7729   0.936E-02    0.910E-02
RMM:   5    -0.933976572735E+02   -0.28917E-04   -0.25249E-04  7359   0.444E-02    0.553E-02
RMM:   6    -0.933976429430E+02    0.14331E-04   -0.96057E-05  6281   0.261E-02    0.200E-02
RMM:   7    -0.933976453843E+02   -0.24414E-05   -0.46697E-05  5327   0.160E-02
  30 F= -.96511683E+02 E0= -.96499309E+02  d E =-.633260E-02
       N       E                     dE             d eps       ncg     rms          rms(c)
DAV:   1    -0.933988249776E+02   -0.11820E-02   -0.69892E-02  5712   0.650E-01    0.997E-02
RMM:   2    -0.933990840549E+02   -0.25908E-03   -0.25557E-03  6124   0.142E-01    0.588E-02
RMM:   3    -0.933991723246E+02   -0.88270E-04   -0.49619E-04  7374   0.706E-02    0.742E-02
RMM:   4    -0.933990624674E+02    0.10986E-03   -0.84207E-05  5994   0.290E-02    0.291E-02
RMM:   5    -0.933990626144E+02   -0.14701E-06   -0.25118E-05  4586   0.146E-02
  31 F= -.96513045E+02 E0= -.96500711E+02  d E =-.136144E-02
       N       E                     dE             d eps       ncg     rms          rms(c)
DAV:   1    -0.933990613672E+02    0.11002E-05   -0.62938E-01  5456   0.195E+00    0.295E-01
RMM:   2    -0.934013613587E+02   -0.23000E-02   -0.23843E-02  6685   0.430E-01    0.170E-01
RMM:   3    -0.934022874667E+02   -0.92611E-03   -0.45637E-03  8199   0.213E-01    0.218E-01
RMM:   4    -0.934012983512E+02    0.98912E-03   -0.76911E-04  7922   0.849E-02    0.878E-02
RMM:   5    -0.934013073636E+02   -0.90124E-05   -0.26267E-04  7311   0.428E-02    0.430E-02
RMM:   6    -0.934012999963E+02    0.73673E-05   -0.11209E-04  6350   0.263E-02    0.164E-02
RMM:   7    -0.934013053017E+02   -0.53053E-05   -0.66444E-05  5250   0.168E-02
  32 F= -.96515123E+02 E0= -.96502857E+02  d E =-.343999E-02
       N       E                     dE             d eps       ncg     rms          rms(c)
DAV:   1    -0.934013118577E+02   -0.11861E-04   -0.22708E-02  5912   0.371E-01    0.554E-02
RMM:   2    -0.934013973677E+02   -0.85510E-04   -0.91166E-04  6483   0.836E-02    0.310E-02
RMM:   3    -0.934014350157E+02   -0.37648E-04   -0.18063E-04  7142   0.416E-02    0.404E-02
RMM:   4    -0.934014036813E+02    0.31334E-04   -0.46722E-05  5287   0.194E-02    0.167E-02
RMM:   5    -0.934014057395E+02   -0.20583E-05   -0.25517E-05  3890   0.118E-02
  33 F= -.96515193E+02 E0= -.96502951E+02  d E =-.350990E-02
       N       E                     dE             d eps       ncg     rms          rms(c)
DAV:   1    -0.934028708448E+02   -0.14672E-02   -0.12182E-01  5536   0.807E-01    0.122E-01
RMM:   2    -0.934033002922E+02   -0.42945E-03   -0.50127E-03  6446   0.179E-01    0.673E-02
RMM:   3    -0.934034776429E+02   -0.17735E-03   -0.89742E-04  7632   0.873E-02    0.727E-02
RMM:   4    -0.934033716671E+02    0.10598E-03   -0.15341E-04  6501   0.363E-02    0.360E-02
RMM:   5    -0.934033724779E+02   -0.81076E-06   -0.58531E-05  5378   0.192E-02
  34 F= -.96517017E+02 E0= -.96504842E+02  d E =-.182360E-02
       N       E                     dE             d eps       ncg     rms          rms(c)
DAV:   1    -0.934037377560E+02   -0.36609E-03   -0.10952E+00  5440   0.242E+00    0.367E-01
RMM:   2    -0.934076184108E+02   -0.38807E-02   -0.45030E-02  6615   0.538E-01    0.201E-01
RMM:   3    -0.934091121415E+02   -0.14937E-02   -0.79783E-03  8259   0.261E-01    0.210E-01
RMM:   4    -0.934082399477E+02    0.87219E-03   -0.13687E-03  7860   0.107E-01    0.110E-01
RMM:   5    -0.934082196892E+02    0.20259E-04   -0.45267E-04  7410   0.525E-02    0.508E-02
RMM:   6    -0.934082331754E+02   -0.13486E-04   -0.20467E-04  6374   0.311E-02    0.204E-02
RMM:   7    -0.934082406097E+02   -0.74344E-05   -0.10335E-04  5529   0.200E-02    0.105E-02
RMM:   8    -0.934082461295E+02   -0.55198E-05   -0.59645E-05  4628   0.139E-02
  35 F= -.96521464E+02 E0= -.96509477E+02  d E =-.627109E-02
       N       E                     dE             d eps       ncg     rms          rms(c)
DAV:   1    -0.933952671439E+02    0.12973E-01   -0.43798E+00  5440   0.482E+00    0.732E-01
RMM:   2    -0.934108248535E+02   -0.15558E-01   -0.17993E-01  6713   0.108E+00    0.400E-01
RMM:   3    -0.934166666008E+02   -0.58417E-02   -0.31854E-02  8409   0.533E-01    0.411E-01
RMM:   4    -0.934133553480E+02    0.33113E-02   -0.55736E-03  8123   0.215E-01    0.223E-01
RMM:   5    -0.934132263383E+02    0.12901E-03   -0.16847E-03  8255   0.103E-01    0.105E-01
RMM:   6    -0.934132808308E+02   -0.54493E-04   -0.76541E-04  7216   0.592E-02    0.411E-02
RMM:   7    -0.934132993583E+02   -0.18527E-04   -0.34131E-04  6803   0.372E-02    0.189E-02
RMM:   8    -0.934133201003E+02   -0.20742E-04   -0.20800E-04  6224   0.250E-02    0.124E-02
RMM:   9    -0.934133316474E+02   -0.11547E-04   -0.11180E-04  5357   0.176E-02    0.678E-03
RMM:  10    -0.934133385973E+02   -0.69499E-05   -0.64317E-05  4757   0.132E-02
  36 F= -.96525718E+02 E0= -.96514152E+02  d E =-.105244E-01
       N       E                     dE             d eps       ncg     rms          rms(c)
DAV:   1    -0.934153389611E+02   -0.20073E-02   -0.52019E-01  5720   0.172E+00    0.242E-01
RMM:   2    -0.934169442426E+02   -0.16053E-02   -0.18281E-02  6462   0.376E-01    0.132E-01
RMM:   3    -0.934177021561E+02   -0.75791E-03   -0.38187E-03  8025   0.190E-01    0.152E-01
RMM:   4    -0.934171614969E+02    0.54066E-03   -0.63383E-04  7695   0.762E-02    0.733E-02
RMM:   5    -0.934171636027E+02   -0.21058E-05   -0.22244E-04  6800   0.373E-02    0.393E-02
RMM:   6    -0.934171673913E+02   -0.37886E-05   -0.10916E-04  5743   0.240E-02    0.144E-02
RMM:   7    -0.934171702973E+02   -0.29060E-05   -0.58955E-05  4851   0.153E-02
  37 F= -.96529131E+02 E0= -.96517667E+02  d E =-.341360E-02
       N       E                     dE             d eps       ncg     rms          rms(c)
DAV:   1    -0.934153919063E+02    0.17755E-02   -0.12948E+00  5472   0.272E+00    0.380E-01
RMM:   2    -0.934193560003E+02   -0.39641E-02   -0.45440E-02  6532   0.594E-01    0.207E-01
RMM:   3    -0.934211797714E+02   -0.18238E-02   -0.94538E-03  8151   0.302E-01    0.232E-01
RMM:   4    -0.934199217211E+02    0.12581E-02   -0.15452E-03  7906   0.119E-01    0.114E-01
RMM:   5    -0.934199139007E+02    0.78204E-05   -0.49921E-04  7608   0.569E-02    0.604E-02
RMM:   6    -0.934199212468E+02   -0.73461E-05   -0.23155E-04  6399   0.342E-02    0.225E-02
RMM:   7    -0.934199265786E+02   -0.53318E-05   -0.11729E-04  5583   0.220E-02    0.907E-03
RMM:   8    -0.934199344336E+02   -0.78550E-05   -0.68993E-05  4906   0.152E-02
  38 F= -.96531235E+02 E0= -.96519933E+02  d E =-.551697E-02
       N       E                     dE             d eps       ncg     rms          rms(c)
DAV:   1    -0.934217574280E+02   -0.18308E-02   -0.32413E-01  5792   0.141E+00    0.168E-01
RMM:   2    -0.934226241943E+02   -0.86677E-03   -0.10196E-02  6260   0.307E-01    0.860E-02
RMM:   3    -0.934228729823E+02   -0.24879E-03   -0.23222E-03  7913   0.157E-01    0.623E-02
RMM:   4    -0.934229113951E+02   -0.38413E-04   -0.39031E-04  7478   0.589E-02    0.592E-02
RMM:   5    -0.934228738738E+02    0.37521E-04   -0.11646E-04  6288   0.286E-02    0.308E-02
RMM:   6    -0.934228803307E+02   -0.64568E-05   -0.65265E-05  5172   0.181E-02
  39 F= -.96533822E+02 E0= -.96522604E+02  d E =-.258693E-02
[...]
RMM:   4    -0.934866438347E+02    0.10663E-02   -0.12381E-03  7541   0.107E-01    0.105E-01
RMM:   5    -0.934866815175E+02   -0.37683E-04   -0.24931E-04  7367   0.456E-02    0.853E-02
RMM:   6    -0.934866715644E+02    0.99531E-05   -0.10181E-04  5926   0.286E-02    0.253E-02
RMM:   7    -0.934866696959E+02    0.18684E-05   -0.45764E-05  4817   0.185E-02
  61 F= -.96581659E+02 E0= -.96570939E+02  d E =-.255875E-02
       N       E                     dE             d eps       ncg     rms          rms(c)
DAV:   1    -0.934863932938E+02    0.27827E-03   -0.90007E-02  5552   0.603E-01    0.115E-01
RMM:   2    -0.934865128662E+02   -0.11957E-03   -0.26899E-03  6124   0.122E-01    0.739E-02
RMM:   3    -0.934866314495E+02   -0.11858E-03   -0.61684E-04  7119   0.661E-02    0.786E-02
RMM:   4    -0.934864950368E+02    0.13641E-03   -0.10949E-04  5761   0.279E-02    0.356E-02
RMM:   5    -0.934864929876E+02    0.20491E-05   -0.37442E-05  4717   0.154E-02
  62 F= -.96581155E+02 E0= -.96570460E+02  d E =0.504605E-03
       N       E                     dE             d eps       ncg     rms          rms(c)
DAV:   1    -0.934868737079E+02   -0.37867E-03   -0.39712E-02  5576   0.401E-01    0.724E-02
RMM:   2    -0.934869425406E+02   -0.68833E-04   -0.11923E-03  5865   0.810E-02    0.470E-02
RMM:   3    -0.934869959116E+02   -0.53371E-04   -0.25250E-04  6312   0.430E-02    0.495E-02
RMM:   4    -0.934869410085E+02    0.54903E-04   -0.40625E-05  4557   0.185E-02    0.217E-02
RMM:   5    -0.934869419090E+02   -0.90045E-06   -0.13264E-05  3739   0.105E-02
  63 F= -.96581821E+02 E0= -.96571118E+02  d E =-.161427E-03
       N       E                     dE             d eps       ncg     rms          rms(c)
DAV:   1    -0.934877120547E+02   -0.77105E-03   -0.40388E-02  5488   0.518E-01    0.664E-02
RMM:   2    -0.934878677497E+02   -0.15569E-03   -0.17805E-03  6149   0.121E-01    0.365E-02
RMM:   3    -0.934879041170E+02   -0.36367E-04   -0.36240E-04  7336   0.610E-02    0.229E-02
RMM:   4    -0.934879186955E+02   -0.14578E-04   -0.66627E-05  5718   0.245E-02    0.238E-02
RMM:   5    -0.934879076695E+02    0.11026E-04   -0.18747E-05  3988   0.129E-02    0.979E-03
RMM:   6    -0.934879079557E+02   -0.28614E-06   -0.10247E-05  3211   0.878E-03
  64 F= -.96582301E+02 E0= -.96571601E+02  d E =-.480313E-03
       N       E                     dE             d eps       ncg     rms          rms(c)
DAV:   1    -0.934887121142E+02   -0.80444E-03   -0.36394E-01  5440   0.155E+00    0.198E-01
RMM:   2    -0.934901058612E+02   -0.13937E-02   -0.16114E-02  6405   0.362E-01    0.108E-01
RMM:   3    -0.934904283030E+02   -0.32244E-03   -0.33301E-03  7959   0.183E-01    0.661E-02
RMM:   4    -0.934905376445E+02   -0.10934E-03   -0.54185E-04  7656   0.673E-02    0.602E-02
RMM:   5    -0.934904821228E+02    0.55522E-04   -0.14040E-04  6698   0.327E-02    0.314E-02
RMM:   6    -0.934904805231E+02    0.15996E-05   -0.78699E-05  5466   0.192E-02
  65 F= -.96583420E+02 E0= -.96572756E+02  d E =-.159942E-02
       N       E                     dE             d eps       ncg     rms          rms(c)
DAV:   1    -0.934871026497E+02    0.33795E-02   -0.14548E+00  5440   0.310E+00    0.398E-01
RMM:   2    -0.934926907915E+02   -0.55881E-02   -0.64407E-02  6624   0.722E-01    0.216E-01
RMM:   3    -0.934939633767E+02   -0.12726E-02   -0.13330E-02  8139   0.366E-01    0.131E-01
RMM:   4    -0.934943332241E+02   -0.36985E-03   -0.22193E-03  7947   0.135E-01    0.108E-01
RMM:   5    -0.934942164049E+02    0.11682E-03   -0.55872E-04  7872   0.631E-02    0.645E-02
RMM:   6    -0.934941933483E+02    0.23057E-04   -0.28970E-04  6742   0.355E-02    0.220E-02
RMM:   7    -0.934942082308E+02   -0.14883E-04   -0.14040E-04  5944   0.228E-02    0.740E-03
RMM:   8    -0.934942165089E+02   -0.82780E-05   -0.79209E-05  5192   0.162E-02
  66 F= -.96584268E+02 E0= -.96573677E+02  d E =-.244699E-02
       N       E                     dE             d eps       ncg     rms          rms(c)
DAV:   1    -0.934932180807E+02    0.99015E-03   -0.28479E-01  5544   0.122E+00    0.184E-01
RMM:   2    -0.934937303035E+02   -0.51222E-03   -0.75890E-03  6152   0.259E-01    0.103E-01
RMM:   3    -0.934941086103E+02   -0.37831E-03   -0.20642E-03  7691   0.143E-01    0.119E-01
RMM:   4    -0.934937835505E+02    0.32506E-03   -0.40535E-04  7343   0.552E-02    0.553E-02
RMM:   5    -0.934937796261E+02    0.39244E-05   -0.11652E-04  6029   0.275E-02    0.350E-02
RMM:   6    -0.934937768783E+02    0.27477E-05   -0.71779E-05  5016   0.185E-02
  67 F= -.96582945E+02 E0= -.96572333E+02  d E =0.132264E-02
       N       E                     dE             d eps       ncg     rms          rms(c)
DAV:   1    -0.934942989826E+02   -0.51936E-03   -0.16191E-01  5536   0.918E-01    0.139E-01
RMM:   2    -0.934945669128E+02   -0.26793E-03   -0.41368E-03  5899   0.195E-01    0.800E-02
RMM:   3    -0.934947999326E+02   -0.23302E-03   -0.11614E-03  7217   0.108E-01    0.936E-02
RMM:   4    -0.934945978354E+02    0.20210E-03   -0.20389E-04  6470   0.408E-02    0.422E-02
RMM:   5    -0.934945993886E+02   -0.15532E-05   -0.48752E-05  4966   0.206E-02
  68 F= -.96584434E+02 E0= -.96573814E+02  d E =-.165975E-03
       N       E                     dE             d eps       ncg     rms          rms(c)
DAV:   1    -0.934954455479E+02   -0.84771E-03   -0.15620E-01  5640   0.944E-01    0.106E-01
RMM:   2    -0.934956845039E+02   -0.23896E-03   -0.27085E-03  5931   0.196E-01    0.554E-02
RMM:   3    -0.934958285744E+02   -0.14407E-03   -0.11778E-03  7407   0.112E-01    0.400E-02
RMM:   4    -0.934958138792E+02    0.14695E-04   -0.11249E-04  6456   0.343E-02    0.363E-02
RMM:   5    -0.934958089495E+02    0.49297E-05   -0.28283E-05  3985   0.166E-02
  69 F= -.96585085E+02 E0= -.96574504E+02  d E =-.651715E-03
       N       E                     dE             d eps       ncg     rms          rms(c)
DAV:   1    -0.934955438875E+02    0.26999E-03   -0.14128E+00  5576   0.283E+00    0.327E-01
RMM:   2    -0.934977114319E+02   -0.21675E-02   -0.24590E-02  6090   0.591E-01    0.170E-01
RMM:   3    -0.934987237218E+02   -0.10123E-02   -0.10771E-02  7790   0.339E-01    0.915E-02
RMM:   4    -0.934988275038E+02   -0.10378E-03   -0.10704E-03  7615   0.102E-01    0.833E-02
RMM:   5    -0.934988896807E+02   -0.62177E-04   -0.27376E-04  7168   0.441E-02    0.675E-02
RMM:   6    -0.934988580700E+02    0.31611E-04   -0.10606E-04  5570   0.266E-02    0.281E-02
RMM:   7    -0.934988512831E+02    0.67869E-05   -0.54444E-05  4843   0.179E-02
  70 F= -.96586457E+02 E0= -.96575897E+02  d E =-.202300E-02
       N       E                     dE             d eps       ncg     rms          rms(c)
DAV:   1    -0.934887248837E+02    0.10133E-01   -0.56499E+00  5576   0.567E+00    0.643E-01
RMM:   2    -0.934976230269E+02   -0.88981E-02   -0.10017E-01  6205   0.120E+00    0.334E-01
RMM:   3    -0.935020338176E+02   -0.44108E-02   -0.44122E-02  7985   0.682E-01    0.202E-01
RMM:   4    -0.935025012239E+02   -0.46741E-03   -0.43151E-03  8022   0.207E-01    0.223E-01
RMM:   5    -0.935021545826E+02    0.34664E-03   -0.10012E-03  7980   0.875E-02    0.168E-01
RMM:   6    -0.935022026413E+02   -0.48059E-04   -0.46929E-04  6813   0.565E-02    0.661E-02
RMM:   7    -0.935021981166E+02    0.45248E-05   -0.21326E-04  6180   0.358E-02    0.427E-02
RMM:   8    -0.935022120164E+02   -0.13900E-04   -0.13995E-04  5332   0.223E-02    0.855E-03
RMM:   9    -0.935022195172E+02   -0.75008E-05   -0.72249E-05  4871   0.157E-02
  71 F= -.96586500E+02 E0= -.96576020E+02  d E =-.206666E-02
       N       E                     dE             d eps       ncg     rms          rms(c)
DAV:   1    -0.934970816730E+02    0.51303E-02   -0.16060E+00  5576   0.302E+00    0.343E-01
RMM:   2    -0.934995850903E+02   -0.25034E-02   -0.28085E-02  6073   0.632E-01    0.179E-01
RMM:   3    -0.935009115683E+02   -0.13265E-02   -0.12379E-02  7717   0.366E-01    0.114E-01
RMM:   4    -0.935009427482E+02   -0.31180E-04   -0.11526E-03  7507   0.108E-01    0.118E-01
RMM:   5    -0.935008602979E+02    0.82450E-04   -0.24480E-04  7312   0.457E-02    0.895E-02
RMM:   6    -0.935008696197E+02   -0.93217E-05   -0.11799E-04  5663   0.320E-02    0.411E-02
RMM:   7    -0.935008676003E+02    0.20194E-05   -0.49029E-05  4560   0.195E-02
  72 F= -.96586920E+02 E0= -.96576394E+02  d E =-.248629E-02
       N       E                     dE             d eps       ncg     rms          rms(c)
DAV:   1    -0.935009135637E+02   -0.43944E-04   -0.20046E-01  5672   0.101E+00    0.128E-01
RMM:   2    -0.935011798859E+02   -0.26632E-03   -0.41099E-03  5876   0.202E-01    0.745E-02
RMM:   3    -0.935014096675E+02   -0.22978E-03   -0.14098E-03  7276   0.116E-01    0.845E-02
RMM:   4    -0.935012453563E+02    0.16431E-03   -0.15550E-04  6270   0.374E-02    0.452E-02
RMM:   5    -0.935012453220E+02    0.34277E-07   -0.31716E-05  4597   0.175E-02
  73 F= -.96586753E+02 E0= -.96576264E+02  d E =0.166506E-03
       N       E                     dE             d eps       ncg     rms          rms(c)
DAV:   1    -0.935012501986E+02   -0.48423E-05   -0.60435E-02  5768   0.555E-01    0.669E-02
RMM:   2    -0.935013517389E+02   -0.10154E-03   -0.12750E-03  5804   0.112E-01    0.414E-02
RMM:   3    -0.935014161732E+02   -0.64434E-04   -0.41753E-04  6923   0.632E-02    0.443E-02
RMM:   4    -0.935013711203E+02    0.45053E-04   -0.46040E-05  4831   0.219E-02    0.233E-02
RMM:   5    -0.935013726884E+02   -0.15681E-05   -0.12269E-05  3378   0.115E-02
  74 F= -.96587179E+02 E0= -.96576674E+02  d E =-.259067E-03
       N       E                     dE             d eps       ncg     rms          rms(c)
DAV:   1    -0.935013678940E+02    0.32263E-05   -0.38968E-05  5800   0.169E-02    0.373E-03
RMM:   2    -0.935013684350E+02   -0.54100E-06   -0.30861E-06  2677   0.572E-03
  75 F= -.96587182E+02 E0= -.96576675E+02  d E =-.261760E-03
       N       E                     dE             d eps       ncg     rms          rms(c)
DAV:   1    -0.935015819459E+02   -0.21405E-03   -0.57970E-03  5712   0.183E-01    0.221E-02
RMM:   2    -0.935015971470E+02   -0.15201E-04   -0.17368E-04  5499   0.397E-02    0.115E-02
RMM:   3    -0.935016019631E+02   -0.48162E-05   -0.45774E-05  4174   0.211E-02
  76 F= -.96587291E+02 E0= -.96576803E+02  d E =-.109703E-03
       N       E                     dE             d eps       ncg     rms          rms(c)
DAV:   1    -0.935020941957E+02   -0.49705E-03   -0.52695E-02  5464   0.551E-01    0.661E-02
RMM:   2    -0.935022313679E+02   -0.13717E-03   -0.15707E-03  6003   0.120E-01    0.363E-02
RMM:   3    -0.935022725132E+02   -0.41145E-04   -0.41426E-04  7295   0.636E-02    0.239E-02
RMM:   4    -0.935022830000E+02   -0.10487E-04   -0.58288E-05  5645   0.241E-02    0.252E-02
RMM:   5    -0.935022753164E+02    0.76836E-05   -0.19740E-05  3787   0.124E-02
  77 F= -.96587593E+02 E0= -.96577124E+02  d E =-.411898E-03
       N       E                     dE             d eps       ncg     rms          rms(c)
DAV:   1    -0.935027968884E+02   -0.51389E-03   -0.20912E-01  5440   0.109E+00    0.136E-01
RMM:   2    -0.935033539214E+02   -0.55703E-03   -0.63319E-03  6141   0.237E-01    0.721E-02
RMM:   3    -0.935036162028E+02   -0.26228E-03   -0.16281E-03  7777   0.126E-01    0.782E-02
RMM:   4    -0.935035084344E+02    0.10777E-03   -0.24104E-04  7128   0.464E-02    0.433E-02
RMM:   5    -0.935035105917E+02   -0.21574E-05   -0.62459E-05  5594   0.221E-02
  78 F= -.96588087E+02 E0= -.96577690E+02  d E =-.905775E-03
       N       E                     dE             d eps       ncg     rms          rms(c)
DAV:   1    -0.935026978770E+02    0.81056E-03   -0.83607E-01  5440   0.219E+00    0.274E-01
RMM:   2    -0.935049259352E+02   -0.22281E-02   -0.25192E-02  6261   0.467E-01    0.143E-01
RMM:   3    -0.935059109712E+02   -0.98504E-03   -0.64212E-03  8122   0.251E-01    0.149E-01
RMM:   4    -0.935055338662E+02    0.37711E-03   -0.95031E-04  7714   0.897E-02    0.859E-02
RMM:   5    -0.935055375711E+02   -0.37050E-05   -0.24280E-04  7219   0.418E-02    0.563E-02
RMM:   6    -0.935055443115E+02   -0.67403E-05   -0.13022E-04  5797   0.262E-02    0.171E-02
RMM:   7    -0.935055480583E+02   -0.37468E-05   -0.62743E-05  4823   0.171E-02
  79 F= -.96588646E+02 E0= -.96578342E+02  d E =-.146430E-02
       N       E                     dE             d eps       ncg     rms          rms(c)
DAV:   1    -0.935057850342E+02   -0.24072E-03   -0.32573E-02  5824   0.390E-01    0.643E-02
RMM:   2    -0.935058511038E+02   -0.66070E-04   -0.92254E-04  6156   0.837E-02    0.344E-02
RMM:   3    -0.935059011183E+02   -0.50014E-04   -0.25709E-04  6856   0.464E-02    0.429E-02
RMM:   4    -0.935058586939E+02    0.42424E-04   -0.55557E-05  5105   0.205E-02    0.197E-02
RMM:   5    -0.935058591944E+02   -0.50053E-06   -0.23902E-05  3900   0.118E-02
  80 F= -.96588700E+02 E0= -.96578411E+02  d E =-.542707E-04
       N       E                     dE             d eps       ncg     rms          rms(c)
DAV:   1    -0.935057863455E+02    0.72348E-04   -0.51431E-03  5752   0.156E-01    0.227E-02
RMM:   2    -0.935057970924E+02   -0.10747E-04   -0.13768E-04  4988   0.332E-02    0.136E-02
RMM:   3    -0.935058036037E+02   -0.65113E-05   -0.34944E-05  3909   0.177E-02
  81 F= -.96588746E+02 E0= -.96578416E+02  d E =-.100454E-03
       N       E                     dE             d eps       ncg     rms          rms(c)
DAV:   1    -0.935059371436E+02   -0.14005E-03   -0.57810E-03  5760   0.177E-01    0.237E-02
RMM:   2    -0.935059479785E+02   -0.10835E-04   -0.12401E-04  5471   0.367E-02    0.109E-02
RMM:   3    -0.935059522821E+02   -0.43036E-05   -0.41726E-05  3829   0.215E-02
  82 F= -.96588780E+02 E0= -.96578490E+02  d E =-.334100E-04
       N       E                     dE             d eps       ncg     rms          rms(c)
DAV:   1    -0.935061927697E+02   -0.24479E-03   -0.23256E-02  5712   0.345E-01    0.432E-02
RMM:   2    -0.935062295284E+02   -0.36759E-04   -0.43803E-04  5723   0.706E-02    0.245E-02
RMM:   3    -0.935062514408E+02   -0.21912E-04   -0.16147E-04  6214   0.402E-02    0.191E-02
RMM:   4    -0.935062471078E+02    0.43330E-05   -0.24654E-05  3728   0.152E-02
  83 F= -.96588847E+02 E0= -.96578571E+02  d E =-.100688E-03
       N       E                     dE             d eps       ncg     rms          rms(c)
DAV:   1    -0.935065863953E+02   -0.33495E-03   -0.92189E-02  5616   0.686E-01    0.868E-02
RMM:   2    -0.935067339353E+02   -0.14754E-03   -0.17011E-03  5831   0.136E-01    0.470E-02
RMM:   3    -0.935068423020E+02   -0.10837E-03   -0.60194E-04  7235   0.776E-02    0.525E-02
RMM:   4    -0.935067870076E+02    0.55294E-04   -0.78016E-05  5756   0.272E-02    0.274E-02
RMM:   5    -0.935067889683E+02   -0.19607E-05   -0.24621E-05  3839   0.142E-02
  84 F= -.96588934E+02 E0= -.96578673E+02  d E =-.187713E-03
       N       E                     dE             d eps       ncg     rms          rms(c)
DAV:   1    -0.935068519916E+02   -0.64984E-04   -0.72207E-04  6400   0.643E-02    0.995E-03
RMM:   2    -0.935068538440E+02   -0.18524E-05   -0.23155E-05  3471   0.153E-02
  85 F= -.96588961E+02 E0= -.96578702E+02  d E =-.268068E-04
       N       E                     dE             d eps       ncg     rms          rms(c)
DAV:   1    -0.935070271567E+02   -0.17517E-03   -0.63134E-03  5696   0.180E-01    0.236E-02
RMM:   2    -0.935070413680E+02   -0.14211E-04   -0.12549E-04  5427   0.363E-02    0.189E-02
RMM:   3    -0.935070418418E+02   -0.47380E-06   -0.45608E-05  4140   0.212E-02
  86 F= -.96589035E+02 E0= -.96578752E+02  d E =-.100609E-03
       N       E                     dE             d eps       ncg     rms          rms(c)
DAV:   1    -0.935073272565E+02   -0.28589E-03   -0.25094E-02  5544   0.357E-01    0.462E-02
RMM:   2    -0.935073654854E+02   -0.38229E-04   -0.49578E-04  5740   0.724E-02    0.258E-02
RMM:   3    -0.935073840392E+02   -0.18554E-04   -0.17250E-04  6302   0.419E-02    0.162E-02
RMM:   4    -0.935073870139E+02   -0.29747E-05   -0.25853E-05  3782   0.159E-02
  87 F= -.96589151E+02 E0= -.96578923E+02  d E =-.217438E-03
       N       E                     dE             d eps       ncg     rms          rms(c)
DAV:   1    -0.935077378548E+02   -0.35382E-03   -0.99945E-02  5480   0.710E-01    0.874E-02
RMM:   2    -0.935078877767E+02   -0.14992E-03   -0.18921E-03  5818   0.141E-01    0.473E-02
RMM:   3    -0.935079483366E+02   -0.60560E-04   -0.63164E-04  7220   0.788E-02    0.291E-02
RMM:   4    -0.935079629036E+02   -0.14567E-04   -0.79284E-05  5728   0.265E-02    0.272E-02
RMM:   5    -0.935079576021E+02    0.53015E-05   -0.22424E-05  3913   0.137E-02
  88 F= -.96589266E+02 E0= -.96579053E+02  d E =-.331513E-03
       N       E                     dE             d eps       ncg     rms          rms(c)
DAV:   1    -0.935080268178E+02   -0.63914E-04   -0.24192E-03  6064   0.114E-01    0.173E-02
RMM:   2    -0.935080304514E+02   -0.36335E-05   -0.58127E-05  4678   0.247E-02
  89 F= -.96589268E+02 E0= -.96579050E+02  d E =-.333729E-03
       N       E                     dE             d eps       ncg     rms          rms(c)
DAV:   1    -0.935082610386E+02   -0.23422E-03   -0.21236E-02  5656   0.327E-01    0.420E-02
RMM:   2    -0.935082968902E+02   -0.35852E-04   -0.37825E-04  5707   0.642E-02    0.281E-02
RMM:   3    -0.935083206146E+02   -0.23724E-04   -0.14013E-04  6238   0.371E-02    0.275E-02
RMM:   4    -0.935083054498E+02    0.15165E-04   -0.22665E-05  3551   0.146E-02    0.122E-02
RMM:   5    -0.935083058602E+02   -0.41042E-06   -0.74560E-06  3058   0.943E-03
  90 F= -.96589327E+02 E0= -.96579110E+02  d E =-.592700E-04
       N       E                     dE             d eps       ncg     rms          rms(c)
DAV:   1    -0.935086937413E+02   -0.38829E-03   -0.18860E-01  5536   0.972E-01    0.121E-01
RMM:   2    -0.935089756629E+02   -0.28192E-03   -0.33167E-03  5826   0.192E-01    0.634E-02
RMM:   3    -0.935091357245E+02   -0.16006E-03   -0.12125E-03  7378   0.109E-01    0.554E-02
RMM:   4    -0.935090998116E+02    0.35913E-04   -0.14273E-04  6343   0.359E-02    0.372E-02
RMM:   5    -0.935090996541E+02    0.15746E-06   -0.37690E-05  4509   0.177E-02
  91 F= -.96589473E+02 E0= -.96579295E+02  d E =-.205040E-03
       N       E                     dE             d eps       ncg     rms          rms(c)
DAV:   1    -0.935089662792E+02    0.13353E-03   -0.75399E-01  5608   0.194E+00    0.247E-01
RMM:   2    -0.935100963488E+02   -0.11301E-02   -0.13247E-02  5950   0.383E-01    0.128E-01
RMM:   3    -0.935106656651E+02   -0.56932E-03   -0.48218E-03  7612   0.218E-01    0.101E-01
RMM:   4    -0.935105958313E+02    0.69834E-04   -0.57182E-04  7136   0.700E-02    0.740E-02
RMM:   5    -0.935105781307E+02    0.17701E-04   -0.13732E-04  6299   0.331E-02    0.549E-02
RMM:   6    -0.935105836070E+02   -0.54764E-05   -0.72968E-05  4745   0.216E-02
  92 F= -.96589662E+02 E0= -.96579500E+02  d E =-.394568E-03
       N       E                     dE             d eps       ncg     rms          rms(c)
DAV:   1    -0.935107328996E+02   -0.15477E-03   -0.91790E-03  6072   0.189E-01    0.410E-02
RMM:   2    -0.935107446825E+02   -0.11783E-04   -0.26486E-04  5836   0.426E-02    0.220E-02
RMM:   3    -0.935107583075E+02   -0.13625E-04   -0.74644E-05  4853   0.240E-02    0.228E-02
RMM:   4    -0.935107472214E+02    0.11086E-04   -0.25117E-05  3967   0.131E-02    0.111E-02
RMM:   5    -0.935107465737E+02    0.64771E-06   -0.94506E-06  3371   0.843E-03
  93 F= -.96589709E+02 E0= -.96579566E+02  d E =-.461694E-04
       N       E                     dE             d eps       ncg     rms          rms(c)
DAV:   1    -0.935107212516E+02    0.25970E-04   -0.98659E-04  6032   0.607E-02    0.117E-02
RMM:   2    -0.935107225300E+02   -0.12784E-05   -0.25860E-05  3337   0.126E-02
  94 F= -.96589723E+02 E0= -.96579587E+02  d E =-.606751E-04
