       N       E                     dE             d eps       ncg     rms          rms(c)
DAV:   1     0.278055665758E+04    0.27806E+04   -0.84083E+04  6784   0.195E+03
DAV:   2     0.469562095504E+03   -0.23110E+04   -0.22386E+04  6920   0.626E+02
DAV:   3    -0.230055371402E+02   -0.49257E+03   -0.46167E+03  7840   0.253E+02
DAV:   4    -0.852812927341E+02   -0.62276E+02   -0.60166E+02  9288   0.881E+01
DAV:   5    -0.879685849166E+02   -0.26873E+01   -0.26485E+01  9456   0.192E+01    0.169E+01
DAV:   6    -0.823242708711E+02    0.56443E+01   -0.18618E+01  8576   0.187E+01    0.671E+00
DAV:   7    -0.821717645207E+02    0.15251E+00   -0.43979E+00  8504   0.137E+01    0.476E+00
DAV:   8    -0.818449644541E+02    0.32680E+00   -0.28872E+00  8512   0.152E+01    0.293E+00
DAV:   9    -0.817295299150E+02    0.11543E+00   -0.19806E+00  8488   0.108E+01    0.208E+00
DAV:  10    -0.815499266724E+02    0.17960E+00   -0.60105E-01  8584   0.715E+00    0.569E-01
DAV:  11    -0.815571333042E+02   -0.72066E-02   -0.20377E-01  8320   0.333E+00    0.381E-01
DAV:  12    -0.815580310762E+02   -0.89777E-03   -0.46321E-02  8304   0.183E+00    0.192E-01
DAV:  13    -0.815587789972E+02   -0.74792E-03   -0.11775E-02  8328   0.106E+00    0.124E-01
DAV:  14    -0.815590788307E+02   -0.29983E-03   -0.50126E-03  7976   0.102E+00    0.740E-02
DAV:  15    -0.815591140546E+02   -0.35224E-04   -0.15899E-03  8104   0.493E-01    0.406E-02
DAV:  16    -0.815593257176E+02   -0.21166E-03   -0.10745E-03  8648   0.222E-01    0.263E-02
DAV:  17    -0.815593957860E+02   -0.70068E-04   -0.42435E-04  7104   0.113E-01    0.146E-02
DAV:  18    -0.815594226163E+02   -0.26830E-04   -0.12444E-04  7224   0.108E-01    0.127E-02
DAV:  19    -0.815596857373E+02   -0.26312E-03   -0.46506E-05  6448   0.108E-01    0.698E-03
DAV:  20    -0.815600028074E+02   -0.31707E-03   -0.39435E-05  5240   0.259E-02    0.613E-03
DAV:  21    -0.815602404902E+02   -0.23768E-03   -0.28655E-05  5488   0.562E-02    0.384E-03
DAV:  22    -0.815603846397E+02   -0.14415E-03   -0.13015E-05  5360   0.298E-02    0.233E-03
DAV:  23    -0.815604227698E+02   -0.38130E-04   -0.38704E-06  5008   0.117E-02    0.153E-03
DAV:  24    -0.815604675946E+02   -0.44825E-04   -0.40676E-06  4416   0.210E-02    0.916E-04
DAV:  25    -0.815604758194E+02   -0.82248E-05   -0.12952E-06  4784   0.810E-03
   1 F= -.84640588E+02 E0= -.84633379E+02  d E =-.216272E-01
       N       E                     dE             d eps       ncg     rms          rms(c)
DAV:   1    -0.815595833037E+02    0.88429E-03   -0.14001E+00  5096   0.141E+00    0.260E-01
DAV:   2    -0.815603039710E+02   -0.72067E-03   -0.13081E-02  6312   0.190E-01    0.152E-01
DAV:   3    -0.815602134859E+02    0.90485E-04   -0.49426E-04  6672   0.460E-02    0.396E-02
DAV:   4    -0.815602416121E+02   -0.28126E-04   -0.94155E-05  6344   0.319E-02    0.143E-02
DAV:   5    -0.815602466756E+02   -0.50635E-05   -0.24271E-05  5456   0.750E-02
   2 F= -.84640360E+02 E0= -.84633157E+02  d E =-.216091E-01
       N       E                     dE             d eps       ncg     rms          rms(c)
DAV:   1    -0.815557023478E+02    0.45393E-02   -0.55671E+00  5528   0.286E+00    0.530E-01
DAV:   2    -0.815606502079E+02   -0.49479E-02   -0.70923E-02  6720   0.509E-01    0.319E-01
DAV:   3    -0.815602094782E+02    0.44073E-03   -0.18616E-03  7448   0.375E-01    0.150E-01
DAV:   4    -0.815616163051E+02   -0.14068E-02   -0.46443E-03  7320   0.108E+00    0.153E-01
DAV:   5    -0.815602456912E+02    0.13706E-02   -0.30877E-03  7440   0.882E-01    0.315E-02
DAV:   6    -0.815602562532E+02   -0.10562E-04   -0.12184E-04  7256   0.987E-02    0.200E-02
DAV:   7    -0.815602540483E+02    0.22048E-05   -0.27617E-05  5936   0.466E-02
   3 F= -.84640367E+02 E0= -.84633161E+02  d E =-.216185E-01
       N       E                     dE             d eps       ncg     rms          rms(c)
DAV:   1    -0.815589047605E+02    0.13515E-02   -0.27978E+00  5240   0.199E+00    0.370E-01
DAV:   2    -0.815603819285E+02   -0.14772E-02   -0.26652E-02  6544   0.277E-01    0.215E-01
DAV:   3    -0.815601905298E+02    0.19140E-03   -0.86368E-04  6888   0.636E-02    0.667E-02
DAV:   4    -0.815602570652E+02   -0.66535E-04   -0.21347E-04  6368   0.980E-02    0.240E-02
DAV:   5    -0.815602645505E+02   -0.74853E-05   -0.11598E-04  6688   0.166E-01    0.206E-02
DAV:   6    -0.815602525641E+02    0.11986E-04   -0.45966E-05  5136   0.116E-01    0.966E-03
DAV:   7    -0.815602519635E+02    0.60051E-06   -0.57222E-06  4728   0.340E-02
   4 F= -.84640365E+02 E0= -.84633160E+02  d E =-.216146E-01
       N       E                     dE             d eps       ncg     rms          rms(c)
DAV:   1    -0.815580101720E+02    0.22424E-02   -0.55916E+00  5624   0.281E+00    0.526E-01
DAV:   2    -0.815605821676E+02   -0.25720E-02   -0.49846E-02  6232   0.387E-01    0.302E-01
DAV:   3    -0.815601722320E+02    0.40994E-03   -0.17561E-03  7296   0.885E-02    0.902E-02
DAV:   4    -0.815603015656E+02   -0.12933E-03   -0.54684E-04  6904   0.201E-01    0.403E-02
DAV:   5    -0.815602834787E+02    0.18087E-04   -0.34436E-04  7240   0.287E-01    0.301E-02
DAV:   6    -0.815602591954E+02    0.24283E-04   -0.91113E-05  5880   0.159E-01    0.153E-02
DAV:   7    -0.815602584334E+02    0.76200E-06   -0.12917E-05  5400   0.455E-02
   5 F= -.84640371E+02 E0= -.84633170E+02  d E =-.216030E-01
       N       E                     dE             d eps       ncg     rms          rms(c)
DAV:   1    -0.815338327524E+02    0.26426E-01   -0.29975E+00  5368   0.206E+00    0.489E-01
DAV:   2    -0.815365114982E+02   -0.26787E-02   -0.57426E-02  7248   0.680E-01    0.356E-01
DAV:   3    -0.815361328348E+02    0.37866E-03   -0.39309E-03  7560   0.901E-01    0.276E-01
DAV:   4    -0.815365168709E+02   -0.38404E-03   -0.63940E-03  7408   0.123E+00    0.243E-01
DAV:   5    -0.815353732077E+02    0.11437E-02   -0.25841E-03  7152   0.821E-01    0.788E-02
DAV:   6    -0.815353171195E+02    0.56088E-04   -0.42404E-04  7456   0.173E-01    0.277E-02
DAV:   7    -0.815353076741E+02    0.94454E-05   -0.10757E-04  7632   0.103E-01    0.131E-02
DAV:   8    -0.815353306405E+02   -0.22966E-04   -0.13335E-05  5136   0.229E-02    0.649E-03
DAV:   9    -0.815353550073E+02   -0.24367E-04   -0.72504E-06  4784   0.140E-02    0.278E-03
DAV:  10    -0.815353697091E+02   -0.14702E-04   -0.22478E-06  5000   0.123E-02    0.210E-03
DAV:  11    -0.815353827927E+02   -0.13084E-04   -0.15793E-06  4896   0.584E-03    0.160E-03
DAV:  12    -0.815353982147E+02   -0.15422E-04   -0.24196E-06  4736   0.500E-03    0.104E-03
DAV:  13    -0.815354057878E+02   -0.75731E-05   -0.11169E-06  4992   0.380E-03
   6 F= -.84614960E+02 E0= -.84607712E+02  d E =-.217425E-01
       N       E                     dE             d eps       ncg     rms          rms(c)
DAV:   1    -0.815328852821E+02    0.25129E-02   -0.66441E+00  5960   0.302E+00    0.863E-01
DAV:   2    -0.815361283600E+02   -0.32431E-02   -0.14076E-01  7456   0.114E+00    0.581E-01
DAV:   3    -0.815381451376E+02   -0.20168E-02   -0.25713E-02  9960   0.234E+00    0.417E-01
DAV:   4    -0.815338850259E+02    0.42601E-02   -0.26758E-02  7984   0.243E+00    0.258E-01
DAV:   5    -0.815323086107E+02    0.15764E-02   -0.43474E-03  7392   0.955E-01    0.995E-02
DAV:   6    -0.815321778753E+02    0.13074E-03   -0.92454E-04  7960   0.307E-01    0.532E-02
DAV:   7    -0.815321113375E+02    0.66538E-04   -0.22034E-04  8216   0.158E-01    0.194E-02
DAV:   8    -0.815321206044E+02   -0.92669E-05   -0.47986E-05  6904   0.282E-02
   7 F= -.84612781E+02 E0= -.84605612E+02  d E =-.215096E-01
       N       E                     dE             d eps       ncg     rms          rms(c)
DAV:   1    -0.815569339564E+02   -0.24823E-01   -0.30731E+00  6584   0.201E+00    0.503E-01
DAV:   2    -0.815608950953E+02   -0.39611E-02   -0.70368E-02  6904   0.703E-01    0.363E-01
DAV:   3    -0.815605069731E+02    0.38812E-03   -0.39149E-03  7824   0.834E-01    0.274E-01
DAV:   4    -0.815612481223E+02   -0.74115E-03   -0.69456E-03  7320   0.129E+00    0.247E-01
DAV:   5    -0.815598920552E+02    0.13561E-02   -0.32111E-03  7280   0.922E-01    0.777E-02
DAV:   6    -0.815598858497E+02    0.62055E-05   -0.43724E-04  7560   0.157E-01    0.270E-02
DAV:   7    -0.815598713370E+02    0.14513E-04   -0.10643E-04  7920   0.104E-01    0.139E-02
DAV:   8    -0.815598784991E+02   -0.71621E-05   -0.12934E-05  5208   0.243E-02
   8 F= -.84639982E+02 E0= -.84632770E+02  d E =-.216336E-01
       N       E                     dE             d eps       ncg     rms          rms(c)
DAV:   1    -0.815552210694E+02    0.46503E-02   -0.56863E+00  6424   0.253E+00    0.453E-01
DAV:   2    -0.815600784296E+02   -0.48574E-02   -0.62719E-02  8112   0.479E-01    0.282E-01
DAV:   3    -0.815598270906E+02    0.25134E-03   -0.17940E-03  7672   0.198E-01    0.110E-01
DAV:   4    -0.815603737576E+02   -0.54667E-03   -0.18777E-03  7528   0.642E-01    0.874E-02
DAV:   5    -0.815598999145E+02    0.47384E-03   -0.11704E-03  7504   0.546E-01    0.221E-02
DAV:   6    -0.815599025263E+02   -0.26118E-05   -0.61096E-05  6288   0.791E-02
   9 F= -.84640006E+02 E0= -.84632776E+02  d E =-.216877E-01
       N       E                     dE             d eps       ncg     rms          rms(c)
DAV:   1    -0.815575404560E+02    0.23595E-02   -0.28451E+00  6568   0.180E+00    0.316E-01
DAV:   2    -0.815599826114E+02   -0.24422E-02   -0.31284E-02  7768   0.349E-01    0.199E-01
DAV:   3    -0.815598773921E+02    0.10522E-03   -0.95025E-04  7424   0.181E-01    0.737E-02
DAV:   4    -0.815602535245E+02   -0.37613E-03   -0.13489E-03  7360   0.568E-01    0.743E-02
DAV:   5    -0.815598996631E+02    0.35386E-03   -0.78282E-04  7400   0.453E-01    0.146E-02
DAV:   6    -0.815599025838E+02   -0.29207E-05   -0.30431E-05  6096   0.414E-02
  10 F= -.84640006E+02 E0= -.84632786E+02  d E =-.216592E-01
       N       E                     dE             d eps       ncg     rms          rms(c)
DAV:   1    -0.815553357110E+02    0.45640E-02   -0.56849E+00  6520   0.254E+00    0.452E-01
DAV:   2    -0.815601822735E+02   -0.48466E-02   -0.62828E-02  8048   0.485E-01    0.283E-01
DAV:   3    -0.815598771183E+02    0.30516E-03   -0.18195E-03  7640   0.218E-01    0.113E-01
DAV:   4    -0.815605334977E+02   -0.65638E-03   -0.23402E-03  7544   0.735E-01    0.988E-02
DAV:   5    -0.815599094006E+02    0.62410E-03   -0.14444E-03  7520   0.604E-01    0.217E-02
DAV:   6    -0.815599120749E+02   -0.26743E-05   -0.62201E-05  6336   0.710E-02
  11 F= -.84640015E+02 E0= -.84632789E+02  d E =-.216794E-01
       N       E                     dE             d eps       ncg     rms          rms(c)
DAV:   1    -0.815320819369E+02    0.27827E-01   -0.31249E+00  6656   0.200E+00    0.487E-01
DAV:   2    -0.815355023129E+02   -0.34204E-02   -0.59018E-02  7552   0.104E+00    0.364E-01
DAV:   3    -0.815358948784E+02   -0.39257E-03   -0.12253E-02  8336   0.168E+00    0.289E-01
DAV:   4    -0.815338336674E+02    0.20612E-02   -0.91597E-03  7488   0.145E+00    0.135E-01
DAV:   5    -0.815334349085E+02    0.39876E-03   -0.17928E-03  7560   0.560E-01    0.645E-02
DAV:   6    -0.815333060239E+02    0.12888E-03   -0.36557E-04  8024   0.189E-01    0.232E-02
DAV:   7    -0.815333082432E+02   -0.22193E-05   -0.70574E-05  7832   0.654E-02
  12 F= -.84612609E+02 E0= -.84605477E+02  d E =-.213974E-01
       N       E                     dE             d eps       ncg     rms          rms(c)
DAV:   1    -0.815360233140E+02   -0.27173E-02   -0.66335E+00  6400   0.292E+00    0.866E-01
DAV:   2    -0.815430079079E+02   -0.69846E-02   -0.16075E-01 10472   0.202E+00    0.660E-01
DAV:   3    -0.815433156828E+02   -0.30777E-03   -0.43412E-02  9280   0.300E+00    0.543E-01
DAV:   4    -0.815362793736E+02    0.70363E-02   -0.26579E-02  8360   0.210E+00    0.282E-01
DAV:   5    -0.815351977697E+02    0.10816E-02   -0.60403E-03  7952   0.103E+00    0.144E-01
DAV:   6    -0.815346737652E+02    0.52400E-03   -0.14591E-03  8448   0.388E-01    0.424E-02
DAV:   7    -0.815347669365E+02   -0.93171E-04   -0.25445E-04  8408   0.125E-01    0.244E-02
DAV:   8    -0.815348274909E+02   -0.60554E-04   -0.62930E-05  7792   0.552E-02    0.102E-02
DAV:   9    -0.815348679049E+02   -0.40414E-04   -0.13134E-05  5568   0.246E-02    0.602E-03
DAV:  10    -0.815349132004E+02   -0.45296E-04   -0.52374E-06  4920   0.170E-02    0.403E-03
DAV:  11    -0.815349598894E+02   -0.46689E-04   -0.62363E-06  5088   0.785E-03    0.222E-03
DAV:  12    -0.815350005595E+02   -0.40670E-04   -0.48740E-06  4880   0.704E-03    0.159E-03
DAV:  13    -0.815350283571E+02   -0.27798E-04   -0.37892E-06  4992   0.666E-03    0.118E-03
DAV:  14    -0.815350416500E+02   -0.13293E-04   -0.20868E-06  5064   0.446E-03    0.589E-04
DAV:  15    -0.815350469076E+02   -0.52577E-05   -0.87900E-07  4712   0.465E-03
  13 F= -.84615958E+02 E0= -.84608672E+02  d E =-.218587E-01
