       N       E                     dE             d eps       ncg     rms          rms(c)
DAV:   1     0.271782649738E+04    0.27178E+04   -0.83176E+04  6736   0.192E+03
DAV:   2     0.432617599135E+03   -0.22852E+04   -0.22099E+04  6984   0.617E+02
DAV:   3    -0.351818845077E+02   -0.46780E+03   -0.44058E+03  7632   0.251E+02
DAV:   4    -0.910787421292E+02   -0.55897E+02   -0.53737E+02  9080   0.862E+01
DAV:   5    -0.934116540443E+02   -0.23329E+01   -0.22995E+01  9416   0.192E+01    0.173E+01
DAV:   6    -0.858004651306E+02    0.76112E+01   -0.23527E+01  8496   0.199E+01    0.639E+00
DAV:   7    -0.856589679708E+02    0.14150E+00   -0.44698E+00  8992   0.146E+01    0.492E+00
DAV:   8    -0.852519203737E+02    0.40705E+00   -0.14321E+00  8520   0.128E+01    0.330E+00
DAV:   9    -0.850069247728E+02    0.24500E+00   -0.12614E+00  8744   0.106E+01    0.215E+00
DAV:  10    -0.848100871956E+02    0.19684E+00   -0.51509E-01  8248   0.797E+00    0.586E-01
DAV:  11    -0.848071822555E+02    0.29049E-02   -0.21850E-01  8392   0.336E+00    0.386E-01
DAV:  12    -0.848049779892E+02    0.22043E-02   -0.51679E-02  8208   0.180E+00    0.248E-01
DAV:  13    -0.847989867624E+02    0.59912E-02   -0.16479E-02  7800   0.180E+00    0.134E-01
DAV:  14    -0.847955758890E+02    0.34109E-02   -0.87956E-03  8496   0.818E-01    0.857E-02
DAV:  15    -0.847956020743E+02   -0.26185E-04   -0.42991E-03  8424   0.314E-01    0.581E-02
DAV:  16    -0.847955084554E+02    0.93619E-04   -0.84407E-04  7552   0.399E-01    0.320E-02
DAV:  17    -0.847955134734E+02   -0.50180E-05   -0.39474E-04  8272   0.120E-01    0.236E-02
DAV:  18    -0.847960078222E+02   -0.49435E-03   -0.16697E-04  6936   0.969E-02    0.151E-02
DAV:  19    -0.847965505757E+02   -0.54275E-03   -0.84950E-05  6632   0.822E-02    0.113E-02
DAV:  20    -0.847971804636E+02   -0.62989E-03   -0.75139E-05  5712   0.451E-02    0.562E-03
DAV:  21    -0.847974616719E+02   -0.28121E-03   -0.30466E-05  5648   0.680E-02    0.387E-03
DAV:  22    -0.847975796640E+02   -0.11799E-03   -0.86547E-06  4912   0.191E-02    0.207E-03
DAV:  23    -0.847976359395E+02   -0.56275E-04   -0.52578E-06  4968   0.166E-02    0.116E-03
DAV:  24    -0.847976549113E+02   -0.18972E-04   -0.26895E-06  4704   0.100E-02    0.959E-04
DAV:  25    -0.847976609440E+02   -0.60327E-05   -0.11312E-06  4568   0.983E-03
   1 F= -.87933999E+02 E0= -.87927588E+02  d E =-.192338E-01
       N       E                     dE             d eps       ncg     rms          rms(c)
DAV:   1    -0.847963615099E+02    0.12934E-02   -0.13127E-01  5720   0.315E-01    0.101E-01
DAV:   2    -0.847965220941E+02   -0.16058E-03   -0.13497E-03  6856   0.522E-02    0.627E-02
DAV:   3    -0.847965586236E+02   -0.36530E-04   -0.77053E-05  5944   0.204E-02    0.143E-02
DAV:   4    -0.847965650116E+02   -0.63879E-05   -0.15377E-05  5456   0.240E-02
   2 F= -.87932904E+02 E0= -.87926492E+02  d E =-.192359E-01
       N       E                     dE             d eps       ncg     rms          rms(c)
DAV:   1    -0.847959922248E+02    0.56640E-03   -0.52418E-01  6384   0.664E-01    0.202E-01
DAV:   2    -0.847965986391E+02   -0.60641E-03   -0.52788E-03  7208   0.164E-01    0.125E-01
DAV:   3    -0.847968087171E+02   -0.21008E-03   -0.48925E-04  7280   0.319E-01    0.509E-02
DAV:   4    -0.847968529551E+02   -0.44238E-04   -0.72613E-04  7448   0.496E-01    0.433E-02
DAV:   5    -0.847967487576E+02    0.10420E-03   -0.19239E-04  6952   0.253E-01    0.824E-03
DAV:   6    -0.847967498731E+02   -0.11155E-05   -0.14574E-05  5584   0.178E-02
   3 F= -.87933089E+02 E0= -.87926678E+02  d E =-.192341E-01
       N       E                     dE             d eps       ncg     rms          rms(c)
DAV:   1    -0.847908194002E+02    0.59294E-02   -0.26970E-01  6152   0.484E-01    0.217E-01
DAV:   2    -0.847908725864E+02   -0.53186E-04   -0.74383E-03  6744   0.129E-01    0.130E-01
DAV:   3    -0.847908321164E+02    0.40470E-04   -0.66210E-04  6920   0.125E-01    0.643E-02
DAV:   4    -0.847909627152E+02   -0.13060E-03   -0.44597E-04  7176   0.399E-01    0.485E-02
DAV:   5    -0.847908363055E+02    0.12641E-03   -0.29645E-04  7176   0.322E-01    0.152E-02
DAV:   6    -0.847908352931E+02    0.10125E-05   -0.18790E-05  6040   0.471E-02
   4 F= -.87927332E+02 E0= -.87920918E+02  d E =-.192440E-01
       N       E                     dE             d eps       ncg     rms          rms(c)
DAV:   1    -0.847907573554E+02    0.78950E-04   -0.57853E-01  6752   0.682E-01    0.403E-01
DAV:   2    -0.847899756821E+02    0.78167E-03   -0.24803E-02  6672   0.255E-01    0.234E-01
DAV:   3    -0.847897148578E+02    0.26082E-03   -0.27002E-03  7160   0.242E-01    0.114E-01
DAV:   4    -0.847900698569E+02   -0.35500E-03   -0.14160E-03  7408   0.648E-01    0.857E-02
DAV:   5    -0.847896847644E+02    0.38509E-03   -0.95240E-04  7688   0.567E-01    0.292E-02
DAV:   6    -0.847896732672E+02    0.11497E-04   -0.73708E-05  6608   0.936E-02    0.110E-02
DAV:   7    -0.847896724449E+02    0.82235E-06   -0.12291E-05  6016   0.223E-02
   5 F= -.87925856E+02 E0= -.87919446E+02  d E =-.192290E-01
       N       E                     dE             d eps       ncg     rms          rms(c)
DAV:   1    -0.847972217100E+02   -0.75484E-02   -0.29087E-01  6328   0.463E-01    0.299E-01
DAV:   2    -0.847967121937E+02    0.50952E-03   -0.12421E-02  6584   0.192E-01    0.165E-01
DAV:   3    -0.847966444977E+02    0.67696E-04   -0.14668E-03  7144   0.265E-01    0.847E-02
DAV:   4    -0.847969223608E+02   -0.27786E-03   -0.11369E-03  7408   0.629E-01    0.787E-02
DAV:   5    -0.847966001654E+02    0.32220E-03   -0.66302E-04  7608   0.472E-01    0.202E-02
DAV:   6    -0.847966009661E+02   -0.80065E-06   -0.39701E-05  6632   0.531E-02
   6 F= -.87932803E+02 E0= -.87926388E+02  d E =-.192451E-01
       N       E                     dE             d eps       ncg     rms          rms(c)
DAV:   1    -0.847955145516E+02    0.10856E-02   -0.52529E-01  6120   0.630E-01    0.254E-01
DAV:   2    -0.847959656020E+02   -0.45105E-03   -0.89035E-03  6912   0.197E-01    0.142E-01
DAV:   3    -0.847961533099E+02   -0.18771E-03   -0.83314E-04  7248   0.341E-01    0.666E-02
DAV:   4    -0.847962557578E+02   -0.10245E-03   -0.80286E-04  7552   0.531E-01    0.585E-02
DAV:   5    -0.847961041592E+02    0.15160E-03   -0.32961E-04  7024   0.317E-01    0.133E-02
DAV:   6    -0.847961046305E+02   -0.47138E-06   -0.27285E-05  6320   0.466E-02
   7 F= -.87932563E+02 E0= -.87926156E+02  d E =-.192214E-01
       N       E                     dE             d eps       ncg     rms          rms(c)
DAV:   1    -0.847906838929E+02    0.54203E-02   -0.26893E-01  6088   0.496E-01    0.206E-01
DAV:   2    -0.847913077540E+02   -0.62386E-03   -0.89364E-03  6608   0.146E-01    0.134E-01
DAV:   3    -0.847912587913E+02    0.48963E-04   -0.46915E-04  7112   0.765E-02    0.653E-02
DAV:   4    -0.847913175033E+02   -0.58712E-04   -0.21484E-04  6704   0.246E-01    0.290E-02
DAV:   5    -0.847912691898E+02    0.48313E-04   -0.15376E-04  6960   0.228E-01    0.119E-02
DAV:   6    -0.847912667161E+02    0.24738E-05   -0.10943E-05  5304   0.507E-02
   8 F= -.87927471E+02 E0= -.87921061E+02  d E =-.192310E-01
       N       E                     dE             d eps       ncg     rms          rms(c)
DAV:   1    -0.847931415223E+02   -0.18723E-02   -0.55913E-01  6696   0.666E-01    0.368E-01
DAV:   2    -0.847926341487E+02    0.50737E-03   -0.19822E-02  6656   0.229E-01    0.210E-01
DAV:   3    -0.847924762532E+02    0.15790E-03   -0.19411E-03  7144   0.233E-01    0.107E-01
DAV:   4    -0.847928842032E+02   -0.40795E-03   -0.14298E-03  7416   0.696E-01    0.882E-02
DAV:   5    -0.847924468456E+02    0.43736E-03   -0.92349E-04  7704   0.570E-01    0.239E-02
DAV:   6    -0.847924438448E+02    0.30008E-05   -0.55536E-05  6488   0.582E-02
   9 F= -.87928920E+02 E0= -.87922506E+02  d E =-.192422E-01
       N       E                     dE             d eps       ncg     rms          rms(c)
DAV:   1    -0.847953552913E+02   -0.29084E-02   -0.28532E-01  6384   0.491E-01    0.275E-01
DAV:   2    -0.847950609106E+02    0.29438E-03   -0.11759E-02  6520   0.175E-01    0.161E-01
DAV:   3    -0.847949351470E+02    0.12576E-03   -0.12762E-03  7144   0.154E-01    0.795E-02
DAV:   4    -0.847950637337E+02   -0.12859E-03   -0.56788E-04  7408   0.404E-01    0.537E-02
DAV:   5    -0.847949259938E+02    0.13774E-03   -0.39624E-04  7280   0.372E-01    0.217E-02
DAV:   6    -0.847949170372E+02    0.89567E-05   -0.41407E-05  6520   0.838E-02
  10 F= -.87931178E+02 E0= -.87924770E+02  d E =-.192231E-01
       N       E                     dE             d eps       ncg     rms          rms(c)
DAV:   1    -0.847949327972E+02   -0.68033E-05   -0.53515E-01  6312   0.654E-01    0.270E-01
DAV:   2    -0.847951869329E+02   -0.25414E-03   -0.10122E-02  6792   0.158E-01    0.161E-01
DAV:   3    -0.847951787218E+02    0.82112E-05   -0.86347E-04  7096   0.141E-01    0.738E-02
DAV:   4    -0.847953458761E+02   -0.16715E-03   -0.55414E-04  7360   0.434E-01    0.514E-02
DAV:   5    -0.847951979072E+02    0.14797E-03   -0.35719E-04  7256   0.354E-01    0.168E-02
DAV:   6    -0.847951980631E+02   -0.15584E-06   -0.23301E-05  6168   0.563E-02
  11 F= -.87931616E+02 E0= -.87925201E+02  d E =-.192449E-01
       N       E                     dE             d eps       ncg     rms          rms(c)
DAV:   1    -0.847961618077E+02   -0.96390E-03   -0.25605E-01  5856   0.468E-01    0.139E-01
DAV:   2    -0.847965669190E+02   -0.40511E-03   -0.34453E-03  7088   0.107E-01    0.865E-02
DAV:   3    -0.847966438291E+02   -0.76910E-04   -0.16341E-04  7064   0.147E-01    0.309E-02
DAV:   4    -0.847967096415E+02   -0.65812E-04   -0.28670E-04  7192   0.339E-01    0.326E-02
DAV:   5    -0.847966381616E+02    0.71480E-04   -0.11898E-04  6256   0.205E-01    0.583E-03
DAV:   6    -0.847966381144E+02    0.47268E-07   -0.73029E-06  5224   0.160E-02
  12 F= -.87932840E+02 E0= -.87926427E+02  d E =-.192391E-01
       N       E                     dE             d eps       ncg     rms          rms(c)
DAV:   1    -0.847954668329E+02    0.11713E-02   -0.52510E-01  6192   0.626E-01    0.253E-01
DAV:   2    -0.847959118326E+02   -0.44500E-03   -0.87042E-03  6888   0.197E-01    0.142E-01
DAV:   3    -0.847961155462E+02   -0.20371E-03   -0.84361E-04  7256   0.348E-01    0.671E-02
DAV:   4    -0.847962041466E+02   -0.88600E-04   -0.79962E-04  7536   0.530E-01    0.581E-02
DAV:   5    -0.847960625509E+02    0.14160E-03   -0.31911E-04  6952   0.309E-01    0.135E-02
DAV:   6    -0.847960635760E+02   -0.10251E-05   -0.27443E-05  6384   0.473E-02
  13 F= -.87932522E+02 E0= -.87926115E+02  d E =-.192216E-01
       N       E                     dE             d eps       ncg     rms          rms(c)
DAV:   1    -0.847923424474E+02    0.37201E-02   -0.27603E-01  5856   0.492E-01    0.235E-01
DAV:   2    -0.847920986348E+02    0.24381E-03   -0.76455E-03  6776   0.186E-01    0.128E-01
DAV:   3    -0.847921410123E+02   -0.42378E-04   -0.13601E-03  7016   0.262E-01    0.694E-02
DAV:   4    -0.847922329590E+02   -0.91947E-04   -0.66391E-04  7368   0.474E-01    0.606E-02
DAV:   5    -0.847921057529E+02    0.12721E-03   -0.36588E-04  7184   0.326E-01    0.227E-02
DAV:   6    -0.847921077599E+02   -0.20070E-05   -0.33514E-05  6608   0.563E-02
  14 F= -.87928584E+02 E0= -.87922168E+02  d E =-.192479E-01
       N       E                     dE             d eps       ncg     rms          rms(c)
DAV:   1    -0.847921587474E+02   -0.52994E-04   -0.56490E-01  6616   0.679E-01    0.363E-01
DAV:   2    -0.847918320144E+02    0.32673E-03   -0.20589E-02  6656   0.232E-01    0.214E-01
DAV:   3    -0.847916492331E+02    0.18278E-03   -0.20237E-03  7160   0.217E-01    0.108E-01
DAV:   4    -0.847919866061E+02   -0.33737E-03   -0.12217E-03  7416   0.608E-01    0.806E-02
DAV:   5    -0.847916353614E+02    0.35124E-03   -0.81454E-04  7616   0.526E-01    0.256E-02
DAV:   6    -0.847916303664E+02    0.49950E-05   -0.58355E-05  6576   0.732E-02
  15 F= -.87927835E+02 E0= -.87921427E+02  d E =-.192221E-01
       N       E                     dE             d eps       ncg     rms          rms(c)
DAV:   1    -0.847947017695E+02   -0.30664E-02   -0.26709E-01  5800   0.450E-01    0.164E-01
DAV:   2    -0.847949547801E+02   -0.25301E-03   -0.35520E-03  7080   0.961E-02    0.100E-01
DAV:   3    -0.847950002207E+02   -0.45441E-04   -0.27816E-04  6648   0.590E-02    0.361E-02
DAV:   4    -0.847950235233E+02   -0.23303E-04   -0.69775E-05  6624   0.109E-01    0.147E-02
DAV:   5    -0.847950212135E+02    0.23098E-05   -0.35707E-05  5512   0.124E-01
  16 F= -.87931282E+02 E0= -.87924874E+02  d E =-.192238E-01
       N       E                     dE             d eps       ncg     rms          rms(c)
DAV:   1    -0.847947155314E+02    0.30799E-03   -0.53367E-01  6624   0.705E-01    0.264E-01
DAV:   2    -0.847950836343E+02   -0.36810E-03   -0.10447E-02  7256   0.180E-01    0.161E-01
DAV:   3    -0.847950866706E+02   -0.30363E-05   -0.93565E-04  7224   0.143E-01    0.731E-02
DAV:   4    -0.847952631621E+02   -0.17649E-03   -0.58832E-04  7320   0.393E-01    0.575E-02
DAV:   5    -0.847951121696E+02    0.15099E-03   -0.42576E-04  7296   0.375E-01    0.205E-02
DAV:   6    -0.847951090207E+02    0.31490E-05   -0.47835E-05  6192   0.118E-01
  17 F= -.87931527E+02 E0= -.87925110E+02  d E =-.192512E-01
       N       E                     dE             d eps       ncg     rms          rms(c)
DAV:   1    -0.847959718196E+02   -0.85965E-03   -0.25591E-01  5608   0.480E-01    0.138E-01
DAV:   2    -0.847963883613E+02   -0.41654E-03   -0.35911E-03  7072   0.986E-02    0.868E-02
DAV:   3    -0.847964591174E+02   -0.70756E-04   -0.14463E-04  6976   0.101E-01    0.287E-02
DAV:   4    -0.847965184419E+02   -0.59324E-04   -0.18816E-04  7032   0.279E-01    0.272E-02
DAV:   5    -0.847964654865E+02    0.52955E-04   -0.94872E-05  6168   0.186E-01    0.688E-03
DAV:   6    -0.847964649774E+02    0.50912E-06   -0.54097E-06  5112   0.199E-02
  18 F= -.87932667E+02 E0= -.87926254E+02  d E =-.192390E-01
       N       E                     dE             d eps       ncg     rms          rms(c)
DAV:   1    -0.847956552214E+02    0.81027E-03   -0.52499E-01  6232   0.618E-01    0.254E-01
DAV:   2    -0.847960896576E+02   -0.43444E-03   -0.87200E-03  6936   0.190E-01    0.141E-01
DAV:   3    -0.847962906069E+02   -0.20095E-03   -0.80643E-04  7224   0.342E-01    0.675E-02
DAV:   4    -0.847963849988E+02   -0.94392E-04   -0.80499E-04  7528   0.532E-01    0.587E-02
DAV:   5    -0.847962396732E+02    0.14533E-03   -0.31528E-04  6920   0.309E-01    0.117E-02
DAV:   6    -0.847962411503E+02   -0.14771E-05   -0.24730E-05  6320   0.385E-02
  19 F= -.87932700E+02 E0= -.87926292E+02  d E =-.192231E-01
       N       E                     dE             d eps       ncg     rms          rms(c)
DAV:   1    -0.847843903046E+02    0.11849E-01   -0.16811E+00  6568   0.131E+00    0.268E-01
DAV:   2    -0.847864212467E+02   -0.20309E-02   -0.30016E-02  7288   0.311E-01    0.172E-01
DAV:   3    -0.847861420223E+02    0.27922E-03   -0.17099E-03  7440   0.182E-01    0.943E-02
DAV:   4    -0.847864494318E+02   -0.30741E-03   -0.12538E-03  7272   0.602E-01    0.730E-02
DAV:   5    -0.847861313195E+02    0.31811E-03   -0.69221E-04  7504   0.474E-01    0.191E-02
DAV:   6    -0.847861409019E+02   -0.95824E-05   -0.49211E-05  6784   0.359E-02
  20 F= -.87922478E+02 E0= -.87916064E+02  d E =-.192427E-01
       N       E                     dE             d eps       ncg     rms          rms(c)
DAV:   1    -0.847784080449E+02    0.77233E-02   -0.66299E+00  6776   0.261E+00    0.491E-01
DAV:   2    -0.847870344143E+02   -0.86264E-02   -0.12103E-01  8088   0.573E-01    0.335E-01
DAV:   3    -0.847854480625E+02    0.15864E-02   -0.63624E-03  7688   0.160E-01    0.188E-01
DAV:   4    -0.847852997236E+02    0.14834E-03   -0.29565E-03  6872   0.450E-01    0.613E-02
DAV:   5    -0.847852325146E+02    0.67209E-04   -0.11122E-03  7216   0.456E-01    0.358E-02
DAV:   6    -0.847852242400E+02    0.82746E-05   -0.12714E-04  6776   0.137E-01    0.180E-02
DAV:   7    -0.847852223412E+02    0.18988E-05   -0.24998E-05  6016   0.196E-02
  21 F= -.87921559E+02 E0= -.87915147E+02  d E =-.192360E-01
       N       E                     dE             d eps       ncg     rms          rms(c)
DAV:   1    -0.847815482332E+02    0.36760E-02   -0.33202E+00  6904   0.183E+00    0.350E-01
DAV:   2    -0.847861542443E+02   -0.46060E-02   -0.63464E-02  7792   0.407E-01    0.240E-01
DAV:   3    -0.847853779604E+02    0.77628E-03   -0.34539E-03  7480   0.124E-01    0.137E-01
DAV:   4    -0.847853241891E+02    0.53771E-04   -0.14541E-03  6672   0.366E-01    0.506E-02
DAV:   5    -0.847852559753E+02    0.68214E-04   -0.61437E-04  7024   0.353E-01    0.260E-02
DAV:   6    -0.847852575073E+02   -0.15320E-05   -0.74795E-05  6664   0.982E-02
  22 F= -.87921594E+02 E0= -.87915185E+02  d E =-.192275E-01
       N       E                     dE             d eps       ncg     rms          rms(c)
DAV:   1    -0.847787655255E+02    0.64904E-02   -0.66205E+00  6816   0.257E+00    0.509E-01
DAV:   2    -0.847880974774E+02   -0.93320E-02   -0.12784E-01  8240   0.578E-01    0.344E-01
DAV:   3    -0.847864692351E+02    0.16282E-02   -0.59918E-03  7976   0.189E-01    0.211E-01
DAV:   4    -0.847862739413E+02    0.19529E-03   -0.34182E-03  6840   0.577E-01    0.794E-02
DAV:   5    -0.847861217136E+02    0.15223E-03   -0.15986E-03  7296   0.596E-01    0.431E-02
DAV:   6    -0.847860981907E+02    0.23523E-04   -0.22466E-04  7080   0.178E-01    0.206E-02
DAV:   7    -0.847860958534E+02    0.23373E-05   -0.42295E-05  6768   0.433E-02
  23 F= -.87922433E+02 E0= -.87916023E+02  d E =-.192279E-01
       N       E                     dE             d eps       ncg     rms          rms(c)
DAV:   1    -0.847929482553E+02   -0.68501E-02   -0.33858E+00  6432   0.193E+00    0.326E-01
DAV:   2    -0.847961867177E+02   -0.32385E-02   -0.53177E-02  7640   0.418E-01    0.230E-01
DAV:   3    -0.847955629902E+02    0.62373E-03   -0.29957E-03  7600   0.144E-01    0.129E-01
DAV:   4    -0.847956849784E+02   -0.12199E-03   -0.13945E-03  7576   0.559E-01    0.755E-02
DAV:   5    -0.847954689921E+02    0.21599E-03   -0.99999E-04  7360   0.543E-01    0.352E-02
DAV:   6    -0.847954435571E+02    0.25435E-04   -0.13379E-04  6840   0.157E-01    0.148E-02
DAV:   7    -0.847954417795E+02    0.17777E-05   -0.26756E-05  6384   0.388E-02
  24 F= -.87930957E+02 E0= -.87924555E+02  d E =-.192060E-01
       N       E                     dE             d eps       ncg     rms          rms(c)
DAV:   1    -0.847893912066E+02    0.60524E-02   -0.68765E+00  6400   0.271E+00    0.543E-01
DAV:   2    -0.847909619067E+02   -0.15707E-02   -0.88631E-02  7440   0.636E-01    0.284E-01
DAV:   3    -0.847902141985E+02    0.74771E-03   -0.41034E-03  7952   0.241E-01    0.192E-01
DAV:   4    -0.847901625894E+02    0.51609E-04   -0.13490E-03  7272   0.144E-01    0.964E-02
DAV:   5    -0.847902550441E+02   -0.92455E-04   -0.71114E-04  7432   0.236E-01    0.458E-02
DAV:   6    -0.847902447413E+02    0.10303E-04   -0.28526E-04  7544   0.283E-01    0.301E-02
DAV:   7    -0.847902030084E+02    0.41733E-04   -0.12253E-04  6592   0.184E-01    0.140E-02
DAV:   8    -0.847902033053E+02   -0.29691E-06   -0.12725E-05  5064   0.572E-02
  25 F= -.87927362E+02 E0= -.87920942E+02  d E =-.192592E-01
