       N       E                     dE             d eps       ncg     rms          rms(c)
DAV:   1     0.517505717706E+03    0.51751E+03   -0.14370E+04  2008   0.906E+02
DAV:   2     0.600543329843E+02   -0.45745E+03   -0.44123E+03  2248   0.263E+02
DAV:   3    -0.660110872059E+02   -0.12607E+03   -0.12226E+03  3864   0.143E+02
DAV:   4    -0.819171013831E+02   -0.15906E+02   -0.15321E+02  3392   0.650E+01
DAV:   5    -0.833676025942E+02   -0.14505E+01   -0.12904E+01  3608   0.171E+01    0.204E+01
RMM:   6    -0.765092585331E+02    0.68583E+01   -0.18824E+01  2332   0.299E+01    0.970E+00
RMM:   7    -0.809480166241E+02   -0.44388E+01   -0.35617E+01  2851   0.160E+01    0.115E+01
RMM:   8    -0.761250347688E+02    0.48230E+01   -0.80839E+00  2471   0.147E+01    0.525E+00
RMM:   9    -0.751451525988E+02    0.97988E+00   -0.27162E+00  2287   0.114E+01    0.330E+00
RMM:  10    -0.751721582473E+02   -0.27006E-01   -0.19893E+00  2709   0.431E+00    0.183E+00
RMM:  11    -0.750647651960E+02    0.10739E+00   -0.37381E-01  2207   0.499E+00    0.918E-01
RMM:  12    -0.750667517776E+02   -0.19866E-02   -0.20284E-01  2732   0.148E+00    0.411E-01
RMM:  13    -0.750703226176E+02   -0.35708E-02   -0.51288E-02  2824   0.717E-01    0.199E-01
RMM:  14    -0.750704517481E+02   -0.12913E-03   -0.13219E-02  2711   0.459E-01    0.142E-01
RMM:  15    -0.750709123006E+02   -0.46055E-03   -0.49520E-03  2711   0.236E-01    0.728E-02
RMM:  16    -0.750709770694E+02   -0.64769E-04   -0.27076E-03  2640   0.193E-01    0.494E-02
RMM:  17    -0.750709415221E+02    0.35547E-04   -0.74351E-04  2505   0.110E-01    0.281E-02
RMM:  18    -0.750712077276E+02   -0.26621E-03   -0.37221E-04  2471   0.770E-02    0.284E-02
RMM:  19    -0.750714484517E+02   -0.24072E-03   -0.16648E-04  2154   0.593E-02    0.109E-02
RMM:  20    -0.750715965151E+02   -0.14806E-03   -0.11559E-04  1946   0.399E-02    0.827E-03
RMM:  21    -0.750719706572E+02   -0.37414E-03   -0.48278E-05  1669   0.336E-02    0.594E-03
RMM:  22    -0.750722601815E+02   -0.28952E-03   -0.32806E-05  1596   0.294E-02    0.499E-03
RMM:  23    -0.750723323102E+02   -0.72129E-04   -0.80355E-06  1299   0.179E-02    0.280E-03
RMM:  24    -0.750723925747E+02   -0.60264E-04   -0.73263E-06  1267   0.151E-02    0.141E-03
RMM:  25    -0.750724176540E+02   -0.25079E-04   -0.40537E-06  1250   0.136E-02    0.910E-04
RMM:  26    -0.750724220409E+02   -0.43869E-05   -0.18925E-06  1134   0.107E-02
   1 F= -.78209991E+02 E0= -.78213559E+02  d E =-.782100E+02
       N       E                     dE             d eps       ncg     rms          rms(c)
DAV:   1    -0.523547503397E+02    0.22718E+02   -0.19971E+03  2016   0.193E+02    0.242E+01
RMM:   2    -0.777163412200E+02   -0.25362E+02   -0.32636E+02  3099   0.109E+02    0.108E+01
RMM:   3    -0.829611048205E+02   -0.52448E+01   -0.12579E+02  2802   0.442E+01    0.181E+01
RMM:   4    -0.773125357976E+02    0.56486E+01   -0.25483E+01  2707   0.229E+01    0.176E+01
RMM:   5    -0.717011036328E+02    0.56114E+01   -0.77119E+00  2849   0.950E+00    0.134E+01
RMM:   6    -0.806494279395E+02   -0.89483E+01   -0.10875E+01  2756   0.111E+01    0.240E+01
RMM:   7    -0.695077458997E+02    0.11142E+02   -0.42910E+00  2401   0.125E+01    0.563E+00
RMM:   8    -0.771193595714E+02   -0.76116E+01   -0.14898E+01  2921   0.123E+01    0.162E+01
RMM:   9    -0.735100848111E+02    0.36093E+01   -0.24302E+00  2850   0.508E+00    0.131E+01
RMM:  10    -0.697040375243E+02    0.38060E+01   -0.44357E+00  2886   0.574E+00    0.359E+00
RMM:  11    -0.697435713912E+02   -0.39534E-01   -0.65195E-01  3179   0.200E+00    0.191E+00
RMM:  12    -0.698117229178E+02   -0.68152E-01   -0.35378E-01  3134   0.123E+00    0.201E+00
RMM:  13    -0.700848186245E+02   -0.27310E+00   -0.33235E-01  3006   0.136E+00    0.497E+00
RMM:  14    -0.706141793882E+02   -0.52936E+00   -0.48662E-01  3098   0.177E+00    0.803E+00
RMM:  15    -0.697978552222E+02    0.81632E+00   -0.30388E-01  2821   0.152E+00    0.239E+00
RMM:  16    -0.697660180761E+02    0.31837E-01   -0.18533E-01  2936   0.125E+00    0.187E+00
RMM:  17    -0.697576658711E+02    0.83522E-02   -0.25695E-02  3079   0.478E-01    0.160E+00
RMM:  18    -0.697475594527E+02    0.10106E-01   -0.12251E-02  2993   0.362E-01    0.975E-01
RMM:  19    -0.697463692356E+02    0.11902E-02   -0.84710E-03  2887   0.338E-01    0.787E-01
RMM:  20    -0.697454309756E+02    0.93826E-03   -0.63605E-03  3024   0.207E-01    0.533E-01
RMM:  21    -0.697491878770E+02   -0.37569E-02   -0.59313E-03  2894   0.216E-01    0.579E-01
RMM:  22    -0.697483967152E+02    0.79116E-03   -0.23351E-03  2928   0.185E-01    0.499E-01
RMM:  23    -0.697461871021E+02    0.22096E-02   -0.19136E-03  2882   0.133E-01    0.254E-01
RMM:  24    -0.697460498069E+02    0.13730E-03   -0.17733E-03  2830   0.105E-01    0.951E-02
RMM:  25    -0.697467196506E+02   -0.66984E-03   -0.11059E-03  2660   0.118E-01    0.202E-01
RMM:  26    -0.697464670669E+02    0.25258E-03   -0.36038E-04  2400   0.569E-02    0.933E-02
RMM:  27    -0.697466553053E+02   -0.18824E-03   -0.18443E-04  2258   0.490E-02    0.119E-01
RMM:  28    -0.697466276607E+02    0.27645E-04   -0.22499E-04  2328   0.512E-02    0.361E-02
RMM:  29    -0.697466689851E+02   -0.41324E-04   -0.61110E-05  1829   0.419E-02    0.249E-02
RMM:  30    -0.697466768425E+02   -0.78574E-05   -0.16201E-05  1557   0.292E-02
   2 F= -.72947940E+02 E0= -.72947445E+02  d E =0.526205E+01
       N       E                     dE             d eps       ncg     rms          rms(c)
DAV:   1    -0.714952202862E+02   -0.17486E+01   -0.17859E+02  2008   0.582E+01    0.339E+00
RMM:   2    -0.726702611989E+02   -0.11750E+01   -0.86657E+00  2748   0.152E+01    0.671E+00
RMM:   3    -0.723134705794E+02    0.35679E+00   -0.92554E-01  2732   0.388E+00    0.238E+00
RMM:   4    -0.722293992676E+02    0.84071E-01   -0.18094E-01  2643   0.218E+00    0.197E+00
RMM:   5    -0.722057186734E+02    0.23681E-01   -0.49550E-02  2660   0.108E+00    0.141E+00
RMM:   6    -0.721978710394E+02    0.78476E-02   -0.36770E-02  2842   0.643E-01    0.978E-01
RMM:   7    -0.721935248849E+02    0.43462E-02   -0.47735E-02  2803   0.766E-01    0.431E-01
RMM:   8    -0.721913017731E+02    0.22231E-02   -0.66903E-03  2807   0.361E-01    0.257E-01
RMM:   9    -0.721908871866E+02    0.41459E-03   -0.25419E-03  2706   0.227E-01    0.190E-01
RMM:  10    -0.721905176680E+02    0.36952E-03   -0.20691E-03  2919   0.161E-01    0.716E-02
RMM:  11    -0.721905991721E+02   -0.81504E-04   -0.10330E-03  2963   0.961E-02    0.266E-02
RMM:  12    -0.721906336197E+02   -0.34448E-04   -0.26439E-04  2487   0.596E-02    0.218E-02
RMM:  13    -0.721906720248E+02   -0.38405E-04   -0.10188E-04  2045   0.446E-02    0.735E-03
RMM:  14    -0.721907030207E+02   -0.30996E-04   -0.35983E-05  1631   0.331E-02    0.806E-03
RMM:  15    -0.721908122423E+02   -0.10922E-03   -0.39555E-05  1682   0.311E-02    0.413E-03
RMM:  16    -0.721908435311E+02   -0.31289E-04   -0.15572E-05  1314   0.269E-02    0.454E-03
RMM:  17    -0.721908669148E+02   -0.23384E-04   -0.79950E-06  1230   0.219E-02    0.200E-03
RMM:  18    -0.721908967520E+02   -0.29837E-04   -0.93737E-06  1270   0.203E-02    0.121E-03
RMM:  19    -0.721909118546E+02   -0.15103E-04   -0.68026E-06  1246   0.184E-02    0.807E-04
RMM:  20    -0.721909162352E+02   -0.43805E-05   -0.43726E-06  1193   0.164E-02
   3 F= -.75368434E+02 E0= -.75369122E+02  d E =0.284156E+01
       N       E                     dE             d eps       ncg     rms          rms(c)
DAV:   1    -0.736945786226E+02   -0.15037E+01   -0.10909E+02  2000   0.469E+01    0.247E+00
RMM:   2    -0.743473129573E+02   -0.65273E+00   -0.47679E+00  2757   0.113E+01    0.514E+00
RMM:   3    -0.741338894700E+02    0.21342E+00   -0.46021E-01  2718   0.292E+00    0.150E+00
RMM:   4    -0.741028046594E+02    0.31085E-01   -0.91696E-02  2701   0.158E+00    0.126E+00
RMM:   5    -0.740909240953E+02    0.11881E-01   -0.28391E-02  2562   0.918E-01    0.936E-01
RMM:   6    -0.740839928849E+02    0.69312E-02   -0.28911E-02  2777   0.684E-01    0.366E-01
RMM:   7    -0.740827022208E+02    0.12907E-02   -0.11362E-02  2794   0.434E-01    0.140E-01
RMM:   8    -0.740827424179E+02   -0.40197E-04   -0.27603E-03  2939   0.177E-01    0.129E-01
RMM:   9    -0.740826224076E+02    0.12001E-03   -0.82583E-04  2801   0.117E-01    0.817E-02
RMM:  10    -0.740825383167E+02    0.84091E-04   -0.54640E-04  2735   0.973E-02    0.249E-02
RMM:  11    -0.740825700789E+02   -0.31762E-04   -0.20936E-04  2343   0.557E-02    0.142E-02
RMM:  12    -0.740825965730E+02   -0.26494E-04   -0.45073E-05  1653   0.428E-02    0.957E-03
RMM:  13    -0.740826485131E+02   -0.51940E-04   -0.34191E-05  1536   0.321E-02    0.545E-03
RMM:  14    -0.740827163776E+02   -0.67864E-04   -0.21037E-05  1350   0.317E-02    0.338E-03
RMM:  15    -0.740827943813E+02   -0.78004E-04   -0.25419E-05  1434   0.271E-02    0.229E-03
RMM:  16    -0.740828229787E+02   -0.28597E-04   -0.95696E-06  1228   0.246E-02    0.219E-03
RMM:  17    -0.740828472563E+02   -0.24278E-04   -0.76138E-06  1243   0.184E-02    0.129E-03
RMM:  18    -0.740828626890E+02   -0.15433E-04   -0.62986E-06  1220   0.173E-02    0.109E-03
RMM:  19    -0.740828736063E+02   -0.10917E-04   -0.47629E-06  1200   0.151E-02    0.146E-03
RMM:  20    -0.740828757189E+02   -0.21126E-05   -0.29665E-06  1181   0.133E-02
   4 F= -.77247897E+02 E0= -.77249692E+02  d E =0.962093E+00
       N       E                     dE             d eps       ncg     rms          rms(c)
DAV:   1    -0.754102331951E+02   -0.13274E+01   -0.32488E+02  2000   0.816E+01    0.752E+00
RMM:   2    -0.782684299743E+02   -0.28582E+01   -0.22480E+01  2723   0.242E+01    0.900E+00
RMM:   3    -0.778811232762E+02    0.38731E+00   -0.19458E+00  2632   0.733E+00    0.374E+00
RMM:   4    -0.772373888495E+02    0.64373E+00   -0.56164E-01  2479   0.490E+00    0.204E+00
RMM:   5    -0.771490571093E+02    0.88332E-01   -0.16952E-01  2429   0.267E+00    0.172E+00
RMM:   6    -0.771301397137E+02    0.18917E-01   -0.12849E-01  2758   0.138E+00    0.134E+00
RMM:   7    -0.771081846309E+02    0.21955E-01   -0.62736E-02  2650   0.105E+00    0.281E-01
RMM:   8    -0.771081113351E+02    0.73296E-04   -0.11907E-02  2745   0.554E-01    0.173E-01
RMM:   9    -0.771080060962E+02    0.10524E-03   -0.35061E-03  2807   0.226E-01    0.106E-01
RMM:  10    -0.771079392909E+02    0.66805E-04   -0.12477E-03  2794   0.153E-01    0.586E-02
RMM:  11    -0.771078976261E+02    0.41665E-04   -0.42274E-04  2634   0.947E-02    0.480E-02
RMM:  12    -0.771079346553E+02   -0.37029E-04   -0.17208E-04  2195   0.463E-02    0.184E-02
RMM:  13    -0.771081690515E+02   -0.23440E-03   -0.13634E-04  2227   0.540E-02    0.165E-02
RMM:  14    -0.771082294476E+02   -0.60396E-04   -0.26090E-05  1457   0.296E-02    0.889E-03
RMM:  15    -0.771084094471E+02   -0.18000E-03   -0.38119E-05  1581   0.377E-02    0.855E-03
RMM:  16    -0.771085389822E+02   -0.12954E-03   -0.25213E-05  1400   0.307E-02    0.447E-03
RMM:  17    -0.771086442761E+02   -0.10529E-03   -0.19186E-05  1403   0.243E-02    0.295E-03
RMM:  18    -0.771086916747E+02   -0.47399E-04   -0.10393E-05  1276   0.229E-02    0.234E-03
RMM:  19    -0.771087422903E+02   -0.50616E-04   -0.11185E-05  1303   0.171E-02    0.181E-03
RMM:  20    -0.771087563549E+02   -0.14065E-04   -0.55509E-06  1238   0.158E-02    0.104E-03
RMM:  21    -0.771087620301E+02   -0.56753E-05   -0.28023E-06  1195   0.112E-02
   5 F= -.80252344E+02 E0= -.80255018E+02  d E =-.204235E+01
       N       E                     dE             d eps       ncg     rms          rms(c)
DAV:   1    -0.772222800161E+02   -0.11352E+00   -0.96329E+01  2000   0.466E+01    0.366E+00
RMM:   2    -0.776264931390E+02   -0.40421E+00   -0.43506E+00  2779   0.115E+01    0.201E+00
RMM:   3    -0.777543752285E+02   -0.12788E+00   -0.42215E-01  2605   0.326E+00    0.196E+00
RMM:   4    -0.776134949593E+02    0.14088E+00   -0.16779E-01  2709   0.222E+00    0.962E-01
RMM:   5    -0.775942920373E+02    0.19203E-01   -0.43036E-02  2439   0.129E+00    0.605E-01
RMM:   6    -0.775853295184E+02    0.89625E-02   -0.23022E-02  2529   0.858E-01    0.156E-01
RMM:   7    -0.775856539056E+02   -0.32439E-03   -0.78456E-03  2807   0.369E-01    0.977E-02
RMM:   8    -0.775856339141E+02    0.19992E-04   -0.15513E-03  2649   0.167E-01    0.630E-02
RMM:   9    -0.775856869870E+02   -0.53073E-04   -0.58765E-04  2712   0.105E-01    0.213E-02
RMM:  10    -0.775857326474E+02   -0.45660E-04   -0.19013E-04  2099   0.563E-02    0.159E-02
RMM:  11    -0.775857889736E+02   -0.56326E-04   -0.52961E-05  1717   0.322E-02    0.796E-03
RMM:  12    -0.775859038291E+02   -0.11486E-03   -0.29458E-05  1490   0.310E-02    0.619E-03
RMM:  13    -0.775859899869E+02   -0.86158E-04   -0.18022E-05  1336   0.289E-02    0.477E-03
RMM:  14    -0.775860783184E+02   -0.88332E-04   -0.16677E-05  1328   0.228E-02    0.259E-03
RMM:  15    -0.775861569634E+02   -0.78645E-04   -0.19079E-05  1408   0.224E-02    0.185E-03
RMM:  16    -0.775861946596E+02   -0.37696E-04   -0.93734E-06  1278   0.200E-02    0.159E-03
RMM:  17    -0.775862208766E+02   -0.26217E-04   -0.80707E-06  1267   0.151E-02    0.126E-03
RMM:  18    -0.775862309498E+02   -0.10073E-04   -0.38021E-06  1213   0.137E-02    0.795E-04
RMM:  19    -0.775862365778E+02   -0.56280E-05   -0.22407E-06  1128   0.875E-03
   6 F= -.80725864E+02 E0= -.80728918E+02  d E =-.251587E+01
       N       E                     dE             d eps       ncg     rms          rms(c)
DAV:   1    -0.775853337491E+02    0.89720E-03   -0.93081E+00  2048   0.150E+01    0.105E+00
RMM:   2    -0.776251588346E+02   -0.39825E-01   -0.45930E-01  2774   0.373E+00    0.599E-01
RMM:   3    -0.776263365146E+02   -0.11777E-02   -0.49304E-02  2511   0.975E-01    0.504E-01
RMM:   4    -0.776271741491E+02   -0.83763E-03   -0.14115E-02  2793   0.588E-01    0.543E-01
RMM:   5    -0.776227809407E+02    0.43932E-02   -0.42706E-03  2471   0.368E-01    0.222E-01
RMM:   6    -0.776230755870E+02   -0.29465E-03   -0.37663E-03  2570   0.348E-01    0.132E-01
RMM:   7    -0.776225790757E+02    0.49651E-03   -0.77756E-04  2341   0.186E-01    0.440E-02
RMM:   8    -0.776226121112E+02   -0.33035E-04   -0.29076E-04  2219   0.885E-02    0.219E-02
RMM:   9    -0.776227075389E+02   -0.95428E-04   -0.11128E-04  2032   0.388E-02    0.717E-03
RMM:  10    -0.776227444185E+02   -0.36880E-04   -0.20642E-05  1395   0.352E-02    0.379E-03
RMM:  11    -0.776227752709E+02   -0.30852E-04   -0.10057E-05  1217   0.208E-02    0.245E-03
RMM:  12    -0.776228150873E+02   -0.39816E-04   -0.98784E-06  1267   0.208E-02    0.206E-03
RMM:  13    -0.776228428041E+02   -0.27717E-04   -0.87289E-06  1269   0.177E-02    0.164E-03
RMM:  14    -0.776228568555E+02   -0.14051E-04   -0.58313E-06  1224   0.165E-02    0.103E-03
RMM:  15    -0.776228708635E+02   -0.14008E-04   -0.69913E-06  1258   0.135E-02    0.106E-03
RMM:  16    -0.776228728727E+02   -0.20091E-05   -0.31409E-06  1205   0.139E-02
   7 F= -.80763437E+02 E0= -.80766327E+02  d E =-.255345E+01
       N       E                     dE             d eps       ncg     rms          rms(c)
DAV:   1    -0.776308312177E+02   -0.79604E-02   -0.81736E-01  2320   0.445E+00    0.306E-01
RMM:   2    -0.776341891815E+02   -0.33580E-02   -0.37954E-02  2795   0.108E+00    0.174E-01
RMM:   3    -0.776346074976E+02   -0.41832E-03   -0.41981E-03  2514   0.294E-01    0.166E-01
RMM:   4    -0.776342850207E+02    0.32248E-03   -0.13859E-03  2724   0.190E-01    0.132E-01
RMM:   5    -0.776340154600E+02    0.26956E-03   -0.33057E-04  2301   0.110E-01    0.553E-02
RMM:   6    -0.776340029670E+02    0.12493E-04   -0.21114E-04  2259   0.953E-02    0.322E-02
RMM:   7    -0.776339818832E+02    0.21084E-04   -0.60032E-05  1714   0.511E-02    0.126E-02
RMM:   8    -0.776339822806E+02   -0.39740E-06   -0.13621E-05  1296   0.325E-02
   8 F= -.80774246E+02 E0= -.80777181E+02  d E =-.256426E+01
       N       E                     dE             d eps       ncg     rms          rms(c)
DAV:   1    -0.762481468476E+02    0.13858E+01   -0.32207E+02  2000   0.895E+01    0.115E+01
RMM:   2    -0.783323844063E+02   -0.20842E+01   -0.25838E+01  2780   0.236E+01    0.435E+00
RMM:   3    -0.786764134879E+02   -0.34403E+00   -0.27079E+00  2700   0.844E+00    0.388E+00
RMM:   4    -0.780108256361E+02    0.66559E+00   -0.78386E-01  2469   0.561E+00    0.264E+00
RMM:   5    -0.779291495972E+02    0.81676E-01   -0.37629E-01  2713   0.255E+00    0.164E+00
RMM:   6    -0.778823357266E+02    0.46814E-01   -0.17860E-01  2469   0.234E+00    0.567E-01
RMM:   7    -0.778761485425E+02    0.61872E-02   -0.68134E-02  2693   0.127E+00    0.255E-01
RMM:   8    -0.778763610056E+02   -0.21246E-03   -0.13594E-02  2685   0.448E-01    0.156E-01
RMM:   9    -0.778763446647E+02    0.16341E-04   -0.51274E-03  2825   0.227E-01    0.636E-02
RMM:  10    -0.778763355392E+02    0.91256E-05   -0.14428E-03  2650   0.154E-01    0.400E-02
RMM:  11    -0.778764791917E+02   -0.14365E-03   -0.49140E-04  2512   0.786E-02    0.338E-02
RMM:  12    -0.778770014086E+02   -0.52222E-03   -0.38138E-04  2449   0.736E-02    0.182E-02
RMM:  13    -0.778774244409E+02   -0.42303E-03   -0.14438E-04  2014   0.408E-02    0.141E-02
RMM:  14    -0.778778249217E+02   -0.40048E-03   -0.70251E-05  1757   0.431E-02    0.790E-03
RMM:  15    -0.778779926678E+02   -0.16775E-03   -0.38392E-05  1566   0.322E-02    0.337E-03
RMM:  16    -0.778781284136E+02   -0.13575E-03   -0.26569E-05  1486   0.230E-02    0.257E-03
RMM:  17    -0.778782015659E+02   -0.73152E-04   -0.17496E-05  1412   0.189E-02    0.249E-03
RMM:  18    -0.778782355060E+02   -0.33940E-04   -0.57451E-06  1264   0.156E-02    0.820E-04
RMM:  19    -0.778782463438E+02   -0.10838E-04   -0.30703E-06  1193   0.104E-02    0.625E-04
RMM:  20    -0.778782533711E+02   -0.70273E-05   -0.13480E-06  1161   0.874E-03
   9 F= -.81036254E+02 E0= -.81038695E+02  d E =-.262008E+00
       N       E                     dE             d eps       ncg     rms          rms(c)
DAV:   1    -0.785822102838E+02   -0.70396E+00   -0.51220E+01  2000   0.314E+01    0.232E+00
RMM:   2    -0.786604303067E+02   -0.78220E-01   -0.16030E+00  2615   0.893E+00    0.165E+00
RMM:   3    -0.787448766836E+02   -0.84446E-01   -0.73887E-01  2683   0.372E+00    0.148E+00
RMM:   4    -0.786813536014E+02    0.63523E-01   -0.18122E-01  2724   0.231E+00    0.757E-01
RMM:   5    -0.786634150228E+02    0.17939E-01   -0.26208E-02  2515   0.984E-01    0.414E-01
RMM:   6    -0.786641730713E+02   -0.75805E-03   -0.11325E-02  2873   0.403E-01    0.175E-01
RMM:   7    -0.786649378101E+02   -0.76474E-03   -0.41950E-03  2705   0.278E-01    0.698E-02
RMM:   8    -0.786650484992E+02   -0.11069E-03   -0.90936E-04  2393   0.163E-01    0.345E-02
RMM:   9    -0.786653331346E+02   -0.28464E-03   -0.53436E-04  2490   0.675E-02    0.190E-02
RMM:  10    -0.786655543914E+02   -0.22126E-03   -0.15306E-04  2087   0.576E-02    0.987E-03
RMM:  11    -0.786656745814E+02   -0.12019E-03   -0.58192E-05  1783   0.349E-02    0.791E-03
RMM:  12    -0.786658530058E+02   -0.17842E-03   -0.52427E-05  1675   0.330E-02    0.576E-03
RMM:  13    -0.786659703673E+02   -0.11736E-03   -0.48667E-05  1638   0.299E-02    0.295E-03
RMM:  14    -0.786660162820E+02   -0.45915E-04   -0.22996E-05  1441   0.274E-02    0.232E-03
RMM:  15    -0.786660356577E+02   -0.19376E-04   -0.12190E-05  1319   0.207E-02    0.117E-03
RMM:  16    -0.786660428671E+02   -0.72094E-05   -0.63413E-06  1258   0.155E-02
  10 F= -.81817033E+02 E0= -.81821639E+02  d E =-.104279E+01
       N       E                     dE             d eps       ncg     rms          rms(c)
DAV:   1    -0.786192003462E+02    0.46835E-01   -0.12601E+02  2000   0.527E+01    0.277E+00
RMM:   2    -0.790694482534E+02   -0.45025E+00   -0.50390E+00  2649   0.132E+01    0.142E+00
RMM:   3    -0.791059568780E+02   -0.36509E-01   -0.58081E-01  2734   0.373E+00    0.136E+00
RMM:   4    -0.790895804102E+02    0.16376E-01   -0.99076E-02  2676   0.172E+00    0.120E+00
RMM:   5    -0.790839718961E+02    0.56085E-02   -0.25123E-02  2659   0.866E-01    0.824E-01
RMM:   6    -0.790808932602E+02    0.30786E-02   -0.28422E-02  2546   0.963E-01    0.252E-01
RMM:   7    -0.790797944888E+02    0.10988E-02   -0.45486E-03  2275   0.417E-01    0.146E-01
RMM:   8    -0.790796091993E+02    0.18529E-03   -0.33361E-03  2755   0.217E-01    0.471E-02
RMM:   9    -0.790797015296E+02   -0.92330E-04   -0.66362E-04  2586   0.933E-02    0.267E-02
RMM:  10    -0.790797433981E+02   -0.41868E-04   -0.11984E-04  2091   0.620E-02    0.115E-02
RMM:  11    -0.790797750111E+02   -0.31613E-04   -0.44422E-05  1663   0.307E-02    0.404E-03
RMM:  12    -0.790798038026E+02   -0.28791E-04   -0.10937E-05  1296   0.288E-02    0.256E-03
RMM:  13    -0.790798200808E+02   -0.16278E-04   -0.72216E-06  1238   0.186E-02    0.193E-03
RMM:  14    -0.790798347665E+02   -0.14686E-04   -0.52687E-06  1234   0.179E-02    0.190E-03
RMM:  15    -0.790798504675E+02   -0.15701E-04   -0.70876E-06  1281   0.143E-02    0.145E-03
RMM:  16    -0.790798556505E+02   -0.51831E-05   -0.40316E-06  1228   0.150E-02
  11 F= -.82243498E+02 E0= -.82246829E+02  d E =-.426465E+00
       N       E                     dE             d eps       ncg     rms          rms(c)
DAV:   1    -0.790785846482E+02    0.12658E-02   -0.31776E-01  2400   0.265E+00    0.104E-01
RMM:   2    -0.790794946718E+02   -0.91002E-03   -0.98300E-03  2631   0.618E-01    0.570E-02
RMM:   3    -0.790795587944E+02   -0.64123E-04   -0.11743E-03  2600   0.173E-01    0.440E-02
RMM:   4    -0.790795585273E+02    0.26711E-06   -0.18223E-04  2102   0.827E-02    0.295E-02
RMM:   5    -0.790795763624E+02   -0.17835E-04   -0.67661E-05  1791   0.503E-02    0.197E-02
RMM:   6    -0.790795550356E+02    0.21327E-04   -0.19886E-05  1348   0.412E-02    0.715E-03
RMM:   7    -0.790795556783E+02   -0.64261E-06   -0.74457E-06  1228   0.215E-02
  12 F= -.82244074E+02 E0= -.82247322E+02  d E =-.427041E+00
       N       E                     dE             d eps       ncg     rms          rms(c)
DAV:   1    -0.792027462364E+02   -0.12319E+00   -0.14343E+01  2000   0.181E+01    0.741E-01
RMM:   2    -0.792525447243E+02   -0.49798E-01   -0.53579E-01  2722   0.416E+00    0.484E-01
RMM:   3    -0.792542418340E+02   -0.16971E-02   -0.48539E-02  2734   0.114E+00    0.370E-01
RMM:   4    -0.792522676723E+02    0.19742E-02   -0.85718E-03  2624   0.538E-01    0.296E-01
RMM:   5    -0.792509698108E+02    0.12979E-02   -0.32703E-03  2555   0.312E-01    0.143E-01
RMM:   6    -0.792507028501E+02    0.26696E-03   -0.20174E-03  2463   0.280E-01    0.490E-02
RMM:   7    -0.792506797341E+02    0.23116E-04   -0.53103E-04  2380   0.110E-01    0.295E-02
RMM:   8    -0.792506602878E+02    0.19446E-04   -0.16091E-04  2210   0.568E-02    0.953E-03
RMM:   9    -0.792506686993E+02   -0.84115E-05   -0.44868E-05  1652   0.415E-02
  13 F= -.82422449E+02 E0= -.82424485E+02  d E =-.178376E+00
       N       E                     dE             d eps       ncg     rms          rms(c)
DAV:   1    -0.791479707265E+02    0.10269E+00   -0.83519E+01  2000   0.426E+01    0.212E+00
RMM:   2    -0.794778213595E+02   -0.32985E+00   -0.34709E+00  2705   0.103E+01    0.118E+00
RMM:   3    -0.794842651550E+02   -0.64438E-02   -0.26597E-01  2725   0.268E+00    0.892E-01
RMM:   4    -0.794864497756E+02   -0.21846E-02   -0.53241E-02  2652   0.131E+00    0.791E-01
RMM:   5    -0.794736984420E+02    0.12751E-01   -0.32139E-02  2568   0.938E-01    0.332E-01
RMM:   6    -0.794702384415E+02    0.34600E-02   -0.10075E-02  2312   0.725E-01    0.125E-01
RMM:   7    -0.794701551990E+02    0.83243E-04   -0.46563E-03  2629   0.215E-01    0.649E-02
RMM:   8    -0.794700528324E+02    0.10237E-03   -0.87215E-04  2310   0.184E-01    0.315E-02
RMM:   9    -0.794700828784E+02   -0.30046E-04   -0.43860E-04  2476   0.874E-02    0.122E-02
RMM:  10    -0.794701230765E+02   -0.40198E-04   -0.12483E-04  1881   0.402E-02    0.974E-03
RMM:  11    -0.794701727264E+02   -0.49650E-04   -0.33381E-05  1552   0.377E-02    0.434E-03
RMM:  12    -0.794702220439E+02   -0.49318E-04   -0.17736E-05  1360   0.244E-02    0.392E-03
RMM:  13    -0.794702762011E+02   -0.54157E-04   -0.11037E-05  1252   0.216E-02    0.286E-03
RMM:  14    -0.794703158734E+02   -0.39672E-04   -0.10142E-05  1286   0.196E-02    0.149E-03
RMM:  15    -0.794703378703E+02   -0.21997E-04   -0.74675E-06  1273   0.161E-02    0.194E-03
RMM:  16    -0.794703498021E+02   -0.11932E-04   -0.46291E-06  1236   0.142E-02    0.936E-04
RMM:  17    -0.794703560651E+02   -0.62629E-05   -0.27059E-06  1196   0.103E-02
  14 F= -.82660775E+02 E0= -.82660745E+02  d E =-.416701E+00
       N       E                     dE             d eps       ncg     rms          rms(c)
DAV:   1    -0.794670503608E+02    0.32994E-02   -0.13658E+00  2000   0.509E+00    0.202E-01
RMM:   2    -0.794702498841E+02   -0.31995E-02   -0.35834E-02  2687   0.117E+00    0.139E-01
RMM:   3    -0.794703824437E+02   -0.13256E-03   -0.40698E-03  2648   0.334E-01    0.931E-02
RMM:   4    -0.794703997691E+02   -0.17325E-04   -0.81265E-04  2485   0.166E-01    0.512E-02
RMM:   5    -0.794704527229E+02   -0.52954E-04   -0.37802E-04  2354   0.106E-01    0.410E-02
RMM:   6    -0.794703493807E+02    0.10334E-03   -0.77198E-05  1712   0.654E-02    0.128E-02
RMM:   7    -0.794703520198E+02   -0.26390E-05   -0.48433E-05  1615   0.293E-02
  15 F= -.82662564E+02 E0= -.82662333E+02  d E =-.418490E+00
       N       E                     dE             d eps       ncg     rms          rms(c)
DAV:   1    -0.795043719913E+02   -0.34023E-01   -0.10037E+01  2000   0.135E+01    0.513E-01
RMM:   2    -0.795257717644E+02   -0.21400E-01   -0.23448E-01  2559   0.304E+00    0.324E-01
RMM:   3    -0.795281006508E+02   -0.23289E-02   -0.34084E-02  2713   0.907E-01    0.231E-01
RMM:   4    -0.795285433374E+02   -0.44269E-03   -0.47628E-03  2513   0.424E-01    0.164E-01
RMM:   5    -0.795283726428E+02    0.17069E-03   -0.23073E-03  2641   0.258E-01    0.928E-02
RMM:   6    -0.795278650323E+02    0.50761E-03   -0.50982E-04  2234   0.170E-01    0.283E-02
RMM:   7    -0.795278842250E+02   -0.19193E-04   -0.34559E-04  2068   0.572E-02    0.189E-02
RMM:   8    -0.795278922030E+02   -0.79780E-05   -0.87204E-05  1810   0.827E-02
  16 F= -.82723921E+02 E0= -.82723330E+02  d E =-.613578E-01
       N       E                     dE             d eps       ncg     rms          rms(c)
DAV:   1    -0.794909747963E+02    0.36909E-01   -0.40073E+01  2000   0.266E+01    0.109E+00
RMM:   2    -0.795860371358E+02   -0.95062E-01   -0.10358E+00  2523   0.619E+00    0.656E-01
RMM:   3    -0.795987964993E+02   -0.12759E-01   -0.15898E-01  2718   0.192E+00    0.530E-01
RMM:   4    -0.795994112911E+02   -0.61479E-03   -0.21427E-02  2593   0.851E-01    0.454E-01
RMM:   5    -0.795970205284E+02    0.23908E-02   -0.93371E-03  2626   0.513E-01    0.196E-01
RMM:   6    -0.795962639355E+02    0.75659E-03   -0.33386E-03  2326   0.411E-01    0.980E-02
RMM:   7    -0.795961586414E+02    0.10529E-03   -0.12339E-03  2499   0.131E-01    0.551E-02
RMM:   8    -0.795961375636E+02    0.21078E-04   -0.56556E-04  2283   0.114E-01    0.225E-02
RMM:   9    -0.795961535741E+02   -0.16011E-04   -0.17244E-04  2110   0.693E-02    0.121E-02
RMM:  10    -0.795961580795E+02   -0.45053E-05   -0.26675E-05  1493   0.304E-02
  17 F= -.82799693E+02 E0= -.82798537E+02  d E =-.137129E+00
       N       E                     dE             d eps       ncg     rms          rms(c)
DAV:   1    -0.790358580424E+02    0.56030E+00   -0.15564E+02  2000   0.511E+01    0.275E+00
RMM:   2    -0.795217551444E+02   -0.48590E+00   -0.52916E+00  2516   0.127E+01    0.137E+00
RMM:   3    -0.795863070212E+02   -0.64552E-01   -0.69335E-01  2718   0.393E+00    0.132E+00
RMM:   4    -0.795764384247E+02    0.98686E-02   -0.85670E-02  2562   0.163E+00    0.122E+00
RMM:   5    -0.795645948948E+02    0.11844E-01   -0.51732E-02  2612   0.105E+00    0.548E-01
RMM:   6    -0.795660723731E+02   -0.14775E-02   -0.36787E-02  2359   0.112E+00    0.423E-01
RMM:   7    -0.795629674553E+02    0.31049E-02   -0.78148E-03  2471   0.372E-01    0.253E-01
RMM:   8    -0.795616173563E+02    0.13501E-02   -0.92532E-03  2348   0.375E-01    0.592E-02
RMM:   9    -0.795616391788E+02   -0.21822E-04   -0.11688E-03  2491   0.206E-01    0.244E-02
RMM:  10    -0.795616856448E+02   -0.46466E-04   -0.29801E-04  2229   0.601E-02    0.112E-02
RMM:  11    -0.795617101833E+02   -0.24538E-04   -0.59562E-05  1767   0.582E-02    0.581E-03
RMM:  12    -0.795617195882E+02   -0.94050E-05   -0.18667E-05  1405   0.257E-02
  18 F= -.82780210E+02 E0= -.82778707E+02  d E =-.117646E+00
       N       E                     dE             d eps       ncg     rms          rms(c)
DAV:   1    -0.794627364600E+02    0.98974E-01   -0.53280E+01  2000   0.289E+01    0.122E+00
RMM:   2    -0.795908852569E+02   -0.12815E+00   -0.13466E+00  2572   0.697E+00    0.764E-01
RMM:   3    -0.796100507433E+02   -0.19165E-01   -0.22785E-01  2696   0.214E+00    0.602E-01
RMM:   4    -0.796119749845E+02   -0.19242E-02   -0.32789E-02  2582   0.988E-01    0.454E-01
RMM:   5    -0.796108121715E+02    0.11628E-02   -0.13578E-02  2608   0.624E-01    0.260E-01
RMM:   6    -0.796081056049E+02    0.27066E-02   -0.49907E-03  2357   0.473E-01    0.968E-02
RMM:   7    -0.796080400071E+02    0.65598E-04   -0.16698E-03  2486   0.152E-01    0.577E-02
RMM:   8    -0.796079942147E+02    0.45792E-04   -0.48545E-04  2292   0.121E-01    0.235E-02
RMM:   9    -0.796080010854E+02   -0.68707E-05   -0.16742E-04  2147   0.666E-02    0.843E-03
RMM:  10    -0.796080050510E+02   -0.39656E-05   -0.47113E-05  1619   0.333E-02
  19 F= -.82817875E+02 E0= -.82816443E+02  d E =-.155312E+00
       N       E                     dE             d eps       ncg     rms          rms(c)
DAV:   1    -0.795940445196E+02    0.13957E-01   -0.30992E+01  2000   0.227E+01    0.988E-01
RMM:   2    -0.796708182138E+02   -0.76774E-01   -0.81289E-01  2719   0.508E+00    0.660E-01
RMM:   3    -0.796735986226E+02   -0.27804E-02   -0.74923E-02  2747   0.136E+00    0.478E-01
RMM:   4    -0.796763635469E+02   -0.27649E-02   -0.19238E-02  2672   0.743E-01    0.398E-01
RMM:   5    -0.796715673684E+02    0.47962E-02   -0.91903E-03  2510   0.527E-01    0.114E-01
RMM:   6    -0.796710888112E+02    0.47856E-03   -0.16790E-03  2326   0.277E-01    0.636E-02
RMM:   7    -0.796710456197E+02    0.43191E-04   -0.91572E-04  2621   0.107E-01    0.307E-02
RMM:   8    -0.796710465428E+02   -0.92306E-06   -0.23599E-04  2246   0.727E-02    0.112E-02
RMM:   9    -0.796710536643E+02   -0.71215E-05   -0.57687E-05  1667   0.411E-02
  20 F= -.82886191E+02 E0= -.82884445E+02  d E =-.683158E-01
       N       E                     dE             d eps       ncg     rms          rms(c)
DAV:   1    -0.796708308031E+02    0.21574E-03   -0.71286E-02  2528   0.106E+00    0.455E-02
RMM:   2    -0.796709645186E+02   -0.13372E-03   -0.15060E-03  2654   0.253E-01    0.297E-02
RMM:   3    -0.796710040920E+02   -0.39573E-04   -0.40594E-04  1979   0.852E-02    0.196E-02
RMM:   4    -0.796710199446E+02   -0.15853E-04   -0.80201E-05  1561   0.576E-02    0.169E-02
RMM:   5    -0.796710178353E+02    0.21092E-05   -0.15282E-05  1280   0.335E-02
  21 F= -.82886401E+02 E0= -.82884651E+02  d E =-.685260E-01
       N       E                     dE             d eps       ncg     rms          rms(c)
DAV:   1    -0.797020626258E+02   -0.31043E-01   -0.18697E+01  2000   0.169E+01    0.740E-01
RMM:   2    -0.797402111373E+02   -0.38149E-01   -0.41718E-01  2531   0.394E+00    0.460E-01
RMM:   3    -0.797470593645E+02   -0.68482E-02   -0.83156E-02  2704   0.124E+00    0.335E-01
RMM:   4    -0.797485427636E+02   -0.14834E-02   -0.10661E-02  2589   0.577E-01    0.274E-01
RMM:   5    -0.797467402958E+02    0.18025E-02   -0.33964E-03  2490   0.342E-01    0.107E-01
RMM:   6    -0.797465003679E+02    0.23993E-03   -0.10431E-03  2438   0.211E-01    0.433E-02
RMM:   7    -0.797464957725E+02    0.45954E-05   -0.35019E-04  2294   0.822E-02    0.265E-02
RMM:   8    -0.797464955616E+02    0.21091E-06   -0.13667E-04  2004   0.551E-02    0.112E-02
RMM:   9    -0.797465010092E+02   -0.54476E-05   -0.25904E-05  1438   0.360E-02
  22 F= -.82964664E+02 E0= -.82962902E+02  d E =-.782625E-01
       N       E                     dE             d eps       ncg     rms          rms(c)
DAV:   1    -0.796624640756E+02    0.84031E-01   -0.51779E+01  2000   0.277E+01    0.131E+00
RMM:   2    -0.797820050503E+02   -0.11954E+00   -0.13013E+00  2541   0.674E+00    0.765E-01
RMM:   3    -0.798036193081E+02   -0.21614E-01   -0.24807E-01  2707   0.210E+00    0.624E-01
RMM:   4    -0.798064628698E+02   -0.28436E-02   -0.30489E-02  2594   0.951E-01    0.539E-01
RMM:   5    -0.798013040164E+02    0.51589E-02   -0.11211E-02  2508   0.584E-01    0.211E-01
RMM:   6    -0.798008934315E+02    0.41058E-03   -0.45350E-03  2439   0.422E-01    0.124E-01
RMM:   7    -0.798007067544E+02    0.18668E-03   -0.12302E-03  2433   0.149E-01    0.787E-02
RMM:   8    -0.798006236217E+02    0.83133E-04   -0.98000E-04  2516   0.127E-01    0.235E-02
RMM:   9    -0.798006546554E+02   -0.31034E-04   -0.16148E-04  2139   0.664E-02    0.191E-02
RMM:  10    -0.798006590351E+02   -0.43797E-05   -0.38166E-05  1603   0.335E-02
  23 F= -.83023321E+02 E0= -.83021803E+02  d E =-.136920E+00
       N       E                     dE             d eps       ncg     rms          rms(c)
DAV:   1    -0.797981798303E+02    0.24748E-02   -0.13453E+00  2000   0.441E+00    0.190E-01
RMM:   2    -0.798008292741E+02   -0.26494E-02   -0.28582E-02  2555   0.994E-01    0.122E-01
RMM:   3    -0.798011694473E+02   -0.34017E-03   -0.42990E-03  2682   0.300E-01    0.831E-02
RMM:   4    -0.798012806329E+02   -0.11119E-03   -0.75323E-04  2441   0.158E-01    0.665E-02
RMM:   5    -0.798011635089E+02    0.11712E-03   -0.24251E-04  2206   0.943E-02    0.253E-02
RMM:   6    -0.798011426698E+02    0.20839E-04   -0.55577E-05  1662   0.618E-02    0.903E-03
RMM:   7    -0.798011471338E+02   -0.44641E-05   -0.29092E-05  1479   0.308E-02
  24 F= -.83024507E+02 E0= -.83023052E+02  d E =-.138106E+00
       N       E                     dE             d eps       ncg     rms          rms(c)
DAV:   1    -0.798161824875E+02   -0.15040E-01   -0.12123E+01  2000   0.133E+01    0.589E-01
RMM:   2    -0.798416530201E+02   -0.25471E-01   -0.27494E-01  2729   0.282E+00    0.399E-01
RMM:   3    -0.798427043529E+02   -0.10513E-02   -0.26382E-02  2748   0.723E-01    0.260E-01
RMM:   4    -0.798445704388E+02   -0.18661E-02   -0.86238E-03  2668   0.439E-01    0.191E-01
RMM:   5    -0.798425755679E+02    0.19949E-02   -0.25418E-03  2453   0.302E-01    0.592E-02
RMM:   6    -0.798425108820E+02    0.64686E-04   -0.89175E-04  2404   0.130E-01    0.311E-02
RMM:   7    -0.798425094863E+02    0.13956E-05   -0.20072E-04  2209   0.690E-02    0.147E-02
RMM:   8    -0.798425168313E+02   -0.73450E-05   -0.76825E-05  1722   0.405E-02
  25 F= -.83066181E+02 E0= -.83064733E+02  d E =-.416738E-01
       N       E                     dE             d eps       ncg     rms          rms(c)
DAV:   1    -0.798422933752E+02    0.21611E-03   -0.23188E+00  2000   0.572E+00    0.259E-01
RMM:   2    -0.798467995678E+02   -0.45062E-02   -0.50312E-02  2713   0.127E+00    0.175E-01
RMM:   3    -0.798472198532E+02   -0.42029E-03   -0.66558E-03  2723   0.348E-01    0.111E-01
RMM:   4    -0.798475738348E+02   -0.35398E-03   -0.18347E-03  2669   0.211E-01    0.954E-02
RMM:   5    -0.798471663756E+02    0.40746E-03   -0.42260E-04  2235   0.132E-01    0.258E-02
RMM:   6    -0.798471724750E+02   -0.60993E-05   -0.18789E-04  2029   0.649E-02    0.131E-02
RMM:   7    -0.798471760440E+02   -0.35690E-05   -0.33796E-05  1531   0.367E-02
  26 F= -.83070930E+02 E0= -.83069487E+02  d E =-.464228E-01
       N       E                     dE             d eps       ncg     rms          rms(c)
DAV:   1    -0.798734735725E+02   -0.26301E-01   -0.48818E+00  2000   0.815E+00    0.363E-01
RMM:   2    -0.798826973228E+02   -0.92238E-02   -0.10097E-01  2571   0.179E+00    0.241E-01
RMM:   3    -0.798841423946E+02   -0.14451E-02   -0.16146E-02  2679   0.543E-01    0.174E-01
RMM:   4    -0.798844662925E+02   -0.32390E-03   -0.31608E-03  2665   0.282E-01    0.146E-01
RMM:   5    -0.798839110322E+02    0.55526E-03   -0.89661E-04  2389   0.183E-01    0.446E-02
RMM:   6    -0.798839154103E+02   -0.43781E-05   -0.25361E-04  2215   0.103E-01    0.181E-02
RMM:   7    -0.798839183469E+02   -0.29366E-05   -0.82904E-05  1784   0.388E-02
  27 F= -.83107029E+02 E0= -.83105572E+02  d E =-.360992E-01
       N       E                     dE             d eps       ncg     rms          rms(c)
DAV:   1    -0.798455873152E+02    0.38328E-01   -0.43457E+01  2000   0.242E+01    0.116E+00
RMM:   2    -0.799399074403E+02   -0.94320E-01   -0.10290E+00  2562   0.575E+00    0.714E-01
RMM:   3    -0.799580491032E+02   -0.18142E-01   -0.20053E-01  2703   0.176E+00    0.577E-01
RMM:   4    -0.799614011050E+02   -0.33520E-02   -0.29074E-02  2676   0.817E-01    0.482E-01
RMM:   5    -0.799563337604E+02    0.50673E-02   -0.10485E-02  2480   0.570E-01    0.196E-01
RMM:   6    -0.799562029643E+02    0.13080E-03   -0.38909E-03  2371   0.378E-01    0.114E-01
RMM:   7    -0.799560645350E+02    0.13843E-03   -0.91397E-04  2516   0.120E-01    0.770E-02
RMM:   8    -0.799559633175E+02    0.10122E-03   -0.56954E-04  2224   0.119E-01    0.246E-02
RMM:   9    -0.799559875592E+02   -0.24242E-04   -0.20747E-04  2224   0.680E-02    0.191E-02
RMM:  10    -0.799559856845E+02    0.18748E-05   -0.34911E-05  1502   0.350E-02
  28 F= -.83176978E+02 E0= -.83175538E+02  d E =-.106048E+00
       N       E                     dE             d eps       ncg     rms          rms(c)
DAV:   1    -0.793708571145E+02    0.58513E+00   -0.16854E+02  2000   0.470E+01    0.297E+00
RMM:   2    -0.798908613063E+02   -0.52000E+00   -0.56683E+00  2577   0.120E+01    0.145E+00
RMM:   3    -0.799520491813E+02   -0.61188E-01   -0.67081E-01  2716   0.330E+00    0.138E+00
RMM:   4    -0.799517929431E+02    0.25624E-03   -0.98290E-02  2653   0.147E+00    0.890E-01
RMM:   5    -0.799477643035E+02    0.40286E-02   -0.58637E-02  2570   0.124E+00    0.431E-01
RMM:   6    -0.799402439166E+02    0.75204E-02   -0.12161E-02  2302   0.754E-01    0.272E-01
RMM:   7    -0.799390611952E+02    0.11827E-02   -0.48504E-03  2560   0.249E-01    0.159E-01
RMM:   8    -0.799386163215E+02    0.44487E-03   -0.37698E-03  2213   0.303E-01    0.551E-02
RMM:   9    -0.799386307449E+02   -0.14423E-04   -0.88473E-04  2360   0.182E-01    0.305E-02
RMM:  10    -0.799386484593E+02   -0.17714E-04   -0.31949E-04  2231   0.571E-02    0.221E-02
RMM:  11    -0.799386483517E+02    0.10765E-06   -0.87158E-05  1925   0.497E-02
  29 F= -.83154834E+02 E0= -.83153483E+02  d E =-.839041E-01
       N       E                     dE             d eps       ncg     rms          rms(c)
DAV:   1    -0.798061009927E+02    0.13255E+00   -0.61106E+01  2000   0.282E+01    0.136E+00
RMM:   2    -0.799557108196E+02   -0.14961E+00   -0.15506E+00  2585   0.668E+00    0.828E-01
RMM:   3    -0.799793612916E+02   -0.23650E-01   -0.25057E-01  2684   0.208E+00    0.678E-01
RMM:   4    -0.799806518342E+02   -0.12905E-02   -0.40153E-02  2681   0.991E-01    0.591E-01
RMM:   5    -0.799741300744E+02    0.65218E-02   -0.16438E-02  2463   0.646E-01    0.167E-01
RMM:   6    -0.799743932273E+02   -0.26315E-03   -0.46606E-03  2342   0.411E-01    0.125E-01
RMM:   7    -0.799741547117E+02    0.23852E-03   -0.10257E-03  2517   0.134E-01    0.760E-02
RMM:   8    -0.799740631575E+02    0.91554E-04   -0.11660E-03  2411   0.128E-01    0.249E-02
RMM:   9    -0.799740694203E+02   -0.62628E-05   -0.15173E-04  2065   0.683E-02    0.214E-02
RMM:  10    -0.799740596896E+02    0.97307E-05   -0.39282E-05  1608   0.311E-02
  30 F= -.83193181E+02 E0= -.83191775E+02  d E =-.122251E+00
       N       E                     dE             d eps       ncg     rms          rms(c)
DAV:   1    -0.799798976289E+02   -0.58282E-02   -0.19737E+01  2000   0.162E+01    0.730E-01
RMM:   2    -0.800218317224E+02   -0.41934E-01   -0.44572E-01  2699   0.345E+00    0.499E-01
RMM:   3    -0.800252413072E+02   -0.34096E-02   -0.47754E-02  2721   0.957E-01    0.374E-01
RMM:   4    -0.800262100538E+02   -0.96875E-03   -0.11661E-02  2649   0.537E-01    0.293E-01
RMM:   5    -0.800240050239E+02    0.22050E-02   -0.50738E-03  2434   0.393E-01    0.734E-02
RMM:   6    -0.800239208454E+02    0.84178E-04   -0.94049E-04  2305   0.193E-01    0.426E-02
RMM:   7    -0.800239015461E+02    0.19299E-04   -0.35253E-04  2380   0.704E-02    0.234E-02
RMM:   8    -0.800239056195E+02   -0.40734E-05   -0.17288E-04  1958   0.628E-02    0.123E-02
RMM:   9    -0.800239058925E+02   -0.27296E-06   -0.24415E-05  1417   0.312E-02
  31 F= -.83239786E+02 E0= -.83238140E+02  d E =-.466048E-01
       N       E                     dE             d eps       ncg     rms          rms(c)
DAV:   1    -0.800172938066E+02    0.66118E-02   -0.96184E+00  2000   0.111E+01    0.508E-01
RMM:   2    -0.800357884794E+02   -0.18495E-01   -0.20122E-01  2706   0.228E+00    0.353E-01
RMM:   3    -0.800372798099E+02   -0.14913E-02   -0.20993E-02  2722   0.638E-01    0.257E-01
RMM:   4    -0.800376364843E+02   -0.35667E-03   -0.54691E-03  2619   0.372E-01    0.192E-01
RMM:   5    -0.800366399024E+02    0.99658E-03   -0.21183E-03  2406   0.268E-01    0.462E-02
RMM:   6    -0.800366084419E+02    0.31461E-04   -0.40439E-04  2237   0.125E-01    0.246E-02
RMM:   7    -0.800366084338E+02    0.81827E-08   -0.15832E-04  2071   0.485E-02    0.129E-02
RMM:   8    -0.800366177756E+02   -0.93419E-05   -0.57787E-05  1621   0.459E-02
  32 F= -.83250202E+02 E0= -.83248392E+02  d E =-.570211E-01
       N       E                     dE             d eps       ncg     rms          rms(c)
DAV:   1    -0.800538661804E+02   -0.17258E-01   -0.20535E+01  2000   0.159E+01    0.764E-01
RMM:   2    -0.800920519407E+02   -0.38186E-01   -0.42385E-01  2544   0.364E+00    0.508E-01
RMM:   3    -0.801012420071E+02   -0.91901E-02   -0.93622E-02  2655   0.125E+00    0.409E-01
RMM:   4    -0.801007960988E+02    0.44591E-03   -0.12821E-02  2597   0.581E-01    0.334E-01
RMM:   5    -0.800993146470E+02    0.14815E-02   -0.35419E-03  2443   0.338E-01    0.157E-01
RMM:   6    -0.800993580167E+02   -0.43370E-04   -0.19795E-03  2260   0.277E-01    0.692E-02
RMM:   7    -0.800993225704E+02    0.35446E-04   -0.43522E-04  2409   0.923E-02    0.477E-02
RMM:   8    -0.800992829406E+02    0.39630E-04   -0.24967E-04  2054   0.705E-02    0.137E-02
RMM:   9    -0.800992901048E+02   -0.71642E-05   -0.58262E-05  1672   0.421E-02
  33 F= -.83308051E+02 E0= -.83305811E+02  d E =-.578482E-01
       N       E                     dE             d eps       ncg     rms          rms(c)
DAV:   1    -0.800378080377E+02    0.61475E-01   -0.45834E+01  2000   0.237E+01    0.119E+00
RMM:   2    -0.801331886910E+02   -0.95381E-01   -0.10517E+00  2514   0.569E+00    0.747E-01
RMM:   3    -0.801569964333E+02   -0.23808E-01   -0.24326E-01  2694   0.193E+00    0.634E-01
RMM:   4    -0.801574835720E+02   -0.48714E-03   -0.30170E-02  2650   0.849E-01    0.555E-01
RMM:   5    -0.801531190443E+02    0.43645E-02   -0.84015E-03  2429   0.501E-01    0.270E-01
RMM:   6    -0.801535634876E+02   -0.44444E-03   -0.73977E-03  2305   0.462E-01    0.163E-01
RMM:   7    -0.801532689997E+02    0.29449E-03   -0.11518E-03  2497   0.156E-01    0.116E-01
RMM:   8    -0.801529994981E+02    0.26950E-03   -0.10197E-03  2291   0.135E-01    0.291E-02
RMM:   9    -0.801530266731E+02   -0.27175E-04   -0.32296E-04  2264   0.784E-02    0.228E-02
RMM:  10    -0.801530191462E+02    0.75269E-05   -0.37291E-05  1554   0.334E-02
  34 F= -.83354638E+02 E0= -.83351706E+02  d E =-.104436E+00
       N       E                     dE             d eps       ncg     rms          rms(c)
DAV:   1    -0.795283371271E+02    0.62469E+00   -0.17754E+02  2000   0.463E+01    0.316E+00
RMM:   2    -0.800695725981E+02   -0.54124E+00   -0.59639E+00  2595   0.118E+01    0.151E+00
RMM:   3    -0.801418350299E+02   -0.72262E-01   -0.76260E-01  2712   0.344E+00    0.147E+00
RMM:   4    -0.801490659811E+02   -0.72310E-02   -0.11915E-01  2690   0.157E+00    0.131E+00
RMM:   5    -0.801265330064E+02    0.22533E-01   -0.50697E-02  2453   0.113E+00    0.517E-01
RMM:   6    -0.801284694432E+02   -0.19364E-02   -0.35756E-02  2343   0.980E-01    0.386E-01
RMM:   7    -0.801264678557E+02    0.20016E-02   -0.54603E-03  2493   0.301E-01    0.261E-01
RMM:   8    -0.801249820027E+02    0.14859E-02   -0.59008E-03  2185   0.365E-01    0.745E-02
RMM:   9    -0.801250320461E+02   -0.50043E-04   -0.17999E-03  2446   0.213E-01    0.454E-02
RMM:  10    -0.801250054341E+02    0.26612E-04   -0.26597E-04  2274   0.709E-02    0.324E-02
RMM:  11    -0.801249927638E+02    0.12670E-04   -0.18711E-04  2058   0.571E-02    0.603E-03
RMM:  12    -0.801250025302E+02   -0.97663E-05   -0.27185E-05  1458   0.298E-02
  35 F= -.83313099E+02 E0= -.83308357E+02  d E =-.628962E-01
       N       E                     dE             d eps       ncg     rms          rms(c)
DAV:   1    -0.798783940858E+02    0.24660E+00   -0.95638E+01  2000   0.340E+01    0.185E+00
RMM:   2    -0.801388686417E+02   -0.26047E+00   -0.26955E+00  2668   0.805E+00    0.106E+00
RMM:   3    -0.801751611711E+02   -0.36293E-01   -0.37811E-01  2662   0.255E+00    0.923E-01
RMM:   4    -0.801722624034E+02    0.28988E-02   -0.63573E-02  2617   0.126E+00    0.810E-01
RMM:   5    -0.801626462393E+02    0.96162E-02   -0.32729E-02  2448   0.796E-01    0.210E-01
RMM:   6    -0.801637113111E+02   -0.10651E-02   -0.10140E-02  2292   0.566E-01    0.205E-01
RMM:   7    -0.801630393585E+02    0.67195E-03   -0.17644E-03  2530   0.173E-01    0.130E-01
RMM:   8    -0.801627712903E+02    0.26807E-03   -0.37488E-03  2422   0.210E-01    0.499E-02
RMM:   9    -0.801627350797E+02    0.36211E-04   -0.26506E-04  2126   0.108E-01    0.305E-02
RMM:  10    -0.801627233163E+02    0.11763E-04   -0.11346E-04  2012   0.405E-02    0.173E-02
RMM:  11    -0.801627172970E+02    0.60193E-05   -0.31202E-05  1470   0.409E-02
  36 F= -.83360562E+02 E0= -.83357217E+02  d E =-.110360E+00
       N       E                     dE             d eps       ncg     rms          rms(c)
DAV:   1    -0.801572317000E+02    0.54916E-02   -0.25347E+01  2000   0.177E+01    0.831E-01
RMM:   2    -0.802116825984E+02   -0.54451E-01   -0.57592E-01  2647   0.386E+00    0.564E-01
RMM:   3    -0.802178747164E+02   -0.61921E-02   -0.72903E-02  2711   0.116E+00    0.447E-01
RMM:   4    -0.802172582724E+02    0.61644E-03   -0.13468E-02  2621   0.592E-01    0.345E-01
RMM:   5    -0.802153615072E+02    0.18968E-02   -0.62135E-03  2385   0.415E-01    0.886E-02
RMM:   6    -0.802153335130E+02    0.27994E-04   -0.13093E-03  2291   0.240E-01    0.576E-02
RMM:   7    -0.802152950777E+02    0.38435E-04   -0.44599E-04  2383   0.763E-02    0.361E-02
RMM:   8    -0.802152865531E+02    0.85245E-05   -0.36768E-04  2078   0.802E-02    0.183E-02
RMM:   9    -0.802152832562E+02    0.32969E-05   -0.40387E-05  1552   0.408E-02
  37 F= -.83406778E+02 E0= -.83402641E+02  d E =-.462158E-01
       N       E                     dE             d eps       ncg     rms          rms(c)
DAV:   1    -0.802038936692E+02    0.11393E-01   -0.12920E+01  2000   0.123E+01    0.587E-01
RMM:   2    -0.802294687224E+02   -0.25575E-01   -0.27504E-01  2676   0.258E+00    0.409E-01
RMM:   3    -0.802318272684E+02   -0.23585E-02   -0.29711E-02  2712   0.753E-01    0.314E-01
RMM:   4    -0.802316335972E+02    0.19367E-03   -0.67483E-03  2595   0.419E-01    0.232E-01
RMM:   5    -0.802306633629E+02    0.97023E-03   -0.30070E-03  2363   0.303E-01    0.537E-02
RMM:   6    -0.802306325655E+02    0.30797E-04   -0.53536E-04  2231   0.149E-01    0.330E-02
RMM:   7    -0.802306220000E+02    0.10566E-04   -0.19363E-04  2112   0.526E-02    0.191E-02
RMM:   8    -0.802306316756E+02   -0.96757E-05   -0.12911E-04  1800   0.531E-02    0.111E-02
RMM:   9    -0.802306306499E+02    0.10257E-05   -0.16002E-05  1327   0.270E-02
  38 F= -.83417729E+02 E0= -.83412987E+02  d E =-.571667E-01
       N       E                     dE             d eps       ncg     rms          rms(c)
DAV:   1    -0.802530002927E+02   -0.22369E-01   -0.85197E+00  2000   0.988E+00    0.487E-01
RMM:   2    -0.802685420727E+02   -0.15542E-01   -0.17101E-01  2564   0.218E+00    0.329E-01
RMM:   3    -0.802724610828E+02   -0.39190E-02   -0.35822E-02  2669   0.794E-01    0.279E-01
RMM:   4    -0.802712338276E+02    0.12273E-02   -0.49924E-03  2481   0.376E-01    0.200E-01
RMM:   5    -0.802710229197E+02    0.21091E-03   -0.16216E-03  2465   0.214E-01    0.872E-02
RMM:   6    -0.802710077041E+02    0.15216E-04   -0.62597E-04  2203   0.173E-01    0.343E-02
RMM:   7    -0.802710155258E+02   -0.78216E-05   -0.21464E-04  2137   0.567E-02    0.240E-02
RMM:   8    -0.802710074026E+02    0.81231E-05   -0.69117E-05  1756   0.558E-02
  39 F= -.83453277E+02 E0= -.83447938E+02  d E =-.355480E-01
       N       E                     dE             d eps       ncg     rms          rms(c)
DAV:   1    -0.802432037858E+02    0.27812E-01   -0.31825E+01  2000   0.191E+01    0.988E-01
RMM:   2    -0.803081306208E+02   -0.64927E-01   -0.71249E-01  2529   0.451E+00    0.625E-01
RMM:   3    -0.803248037653E+02   -0.16673E-01   -0.15840E-01  2692   0.159E+00    0.548E-01
RMM:   4    -0.803218626026E+02    0.29412E-02   -0.18538E-02  2518   0.704E-01    0.452E-01
RMM:   5    -0.803199466145E+02    0.19160E-02   -0.61499E-03  2461   0.403E-01    0.205E-01
RMM:   6    -0.803202113308E+02   -0.26472E-03   -0.43085E-03  2246   0.387E-01    0.121E-01
RMM:   7    -0.803200765196E+02    0.13481E-03   -0.87948E-04  2505   0.125E-01    0.857E-02
RMM:   8    -0.803199325621E+02    0.14396E-03   -0.62009E-04  2230   0.118E-01    0.254E-02
RMM:   9    -0.803199392459E+02   -0.66838E-05   -0.17105E-04  2015   0.654E-02    0.138E-02
RMM:  10    -0.803199400688E+02   -0.82289E-06   -0.29828E-05  1496   0.266E-02
  40 F= -.83493063E+02 E0= -.83486520E+02  d E =-.753345E-01
       N       E                     dE             d eps       ncg     rms          rms(c)
DAV:   1    -0.799237918724E+02    0.39615E+00   -0.12400E+02  2000   0.376E+01    0.241E+00
RMM:   2    -0.802647272793E+02   -0.34094E+00   -0.37631E+00  2611   0.951E+00    0.122E+00
RMM:   3    -0.803211512755E+02   -0.56424E-01   -0.57474E-01  2683   0.304E+00    0.118E+00
RMM:   4    -0.803214647923E+02   -0.31352E-03   -0.83131E-02  2603   0.134E+00    0.110E+00
RMM:   5    -0.803086303876E+02    0.12834E-01   -0.33090E-02  2416   0.893E-01    0.444E-01
RMM:   6    -0.803111065044E+02   -0.24761E-02   -0.29504E-02  2280   0.902E-01    0.376E-01
RMM:   7    -0.803095057047E+02    0.16008E-02   -0.44033E-03  2515   0.262E-01    0.271E-01
RMM:   8    -0.803079778196E+02    0.15279E-02   -0.44421E-03  2190   0.314E-01    0.926E-02
RMM:   9    -0.803079252771E+02    0.52543E-04   -0.19629E-03  2437   0.198E-01    0.338E-02
RMM:  10    -0.803079298445E+02   -0.45675E-05   -0.21982E-04  2166   0.590E-02    0.314E-02
RMM:  11    -0.803079093302E+02    0.20514E-04   -0.10271E-04  1951   0.593E-02    0.923E-03
RMM:  12    -0.803079137195E+02   -0.43893E-05   -0.40588E-05  1579   0.301E-02
  41 F= -.83463717E+02 E0= -.83454963E+02  d E =-.459886E-01
       N       E                     dE             d eps       ncg     rms          rms(c)
DAV:   1    -0.801645488043E+02    0.14336E+00   -0.61832E+01  2000   0.267E+01    0.139E+00
RMM:   2    -0.803181280128E+02   -0.15358E+00   -0.15878E+00  2678   0.611E+00    0.844E-01
RMM:   3    -0.803408995337E+02   -0.22772E-01   -0.22678E-01  2680   0.197E+00    0.727E-01
RMM:   4    -0.803355030891E+02    0.53964E-02   -0.35292E-02  2503   0.980E-01    0.597E-01
RMM:   5    -0.803317310138E+02    0.37721E-02   -0.24043E-02  2559   0.604E-01    0.150E-01
RMM:   6    -0.803316795343E+02    0.51479E-04   -0.31636E-03  2295   0.359E-01    0.133E-01
RMM:   7    -0.803314260547E+02    0.25348E-03   -0.77770E-04  2540   0.119E-01    0.892E-02
RMM:   8    -0.803313046105E+02    0.12144E-03   -0.17799E-03  2361   0.157E-01    0.396E-02
RMM:   9    -0.803312655421E+02    0.39068E-04   -0.13893E-04  1910   0.852E-02    0.190E-02
RMM:  10    -0.803312660182E+02   -0.47611E-06   -0.87852E-05  1849   0.323E-02
  42 F= -.83499107E+02 E0= -.83491871E+02  d E =-.813785E-01
       N       E                     dE             d eps       ncg     rms          rms(c)
DAV:   1    -0.803490095530E+02   -0.17744E-01   -0.44072E+00  2000   0.717E+00    0.337E-01
RMM:   2    -0.803578071107E+02   -0.87976E-02   -0.94056E-02  2719   0.144E+00    0.230E-01
RMM:   3    -0.803587793003E+02   -0.97219E-03   -0.98410E-03  2703   0.445E-01    0.186E-01
RMM:   4    -0.803582936735E+02    0.48563E-03   -0.18356E-03  2487   0.238E-01    0.127E-01
RMM:   5    -0.803581895311E+02    0.10414E-03   -0.90055E-04  2387   0.158E-01    0.345E-02
RMM:   6    -0.803581584243E+02    0.31107E-04   -0.16295E-04  2034   0.965E-02    0.187E-02
RMM:   7    -0.803581569404E+02    0.14839E-05   -0.73747E-05  1699   0.326E-02
  43 F= -.83522326E+02 E0= -.83514661E+02  d E =-.232184E-01
       N       E                     dE             d eps       ncg     rms          rms(c)
DAV:   1    -0.803433973810E+02    0.14761E-01   -0.24489E+01  2000   0.167E+01    0.832E-01
RMM:   2    -0.803951525240E+02   -0.51755E-01   -0.54766E-01  2647   0.362E+00    0.559E-01
RMM:   3    -0.804012094307E+02   -0.60569E-02   -0.67425E-02  2714   0.112E+00    0.446E-01
RMM:   4    -0.803994469030E+02    0.17625E-02   -0.11521E-02  2547   0.569E-01    0.334E-01
RMM:   5    -0.803981204628E+02    0.13264E-02   -0.61343E-03  2373   0.411E-01    0.917E-02
RMM:   6    -0.803979846258E+02    0.13584E-03   -0.12128E-03  2196   0.251E-01    0.547E-02
RMM:   7    -0.803979630375E+02    0.21588E-04   -0.49895E-04  2369   0.758E-02    0.343E-02
RMM:   8    -0.803979654450E+02   -0.24075E-05   -0.35277E-04  2153   0.933E-02    0.196E-02
RMM:   9    -0.803979592442E+02    0.62008E-05   -0.50260E-05  1637   0.474E-02
  44 F= -.83553657E+02 E0= -.83545083E+02  d E =-.545493E-01
       N       E                     dE             d eps       ncg     rms          rms(c)
DAV:   1    -0.803951442602E+02    0.28212E-02   -0.49010E+00  2000   0.733E+00    0.363E-01
RMM:   2    -0.804044432702E+02   -0.92990E-02   -0.10099E-01  2683   0.151E+00    0.250E-01
RMM:   3    -0.804054561952E+02   -0.10129E-02   -0.10769E-02  2718   0.457E-01    0.194E-01
RMM:   4    -0.804050923227E+02    0.36387E-03   -0.22930E-03  2512   0.254E-01    0.134E-01
RMM:   5    -0.804048725503E+02    0.21977E-03   -0.97010E-04  2321   0.177E-01    0.346E-02
RMM:   6    -0.804048476058E+02    0.24945E-04   -0.16949E-04  2038   0.958E-02    0.184E-02
RMM:   7    -0.804048474689E+02    0.13693E-06   -0.76240E-05  1731   0.351E-02
  45 F= -.83556852E+02 E0= -.83547926E+02  d E =-.577444E-01
       N       E                     dE             d eps       ncg     rms          rms(c)
DAV:   1    -0.804186126448E+02   -0.13765E-01   -0.14746E+00  2000   0.399E+00    0.203E-01
RMM:   2    -0.804213158825E+02   -0.27032E-02   -0.29725E-02  2433   0.895E-01    0.140E-01
RMM:   3    -0.804218819874E+02   -0.56610E-03   -0.51792E-03  2689   0.317E-01    0.114E-01
RMM:   4    -0.804216755192E+02    0.20647E-03   -0.87434E-04  2384   0.156E-01    0.777E-02
RMM:   5    -0.804216423849E+02    0.33134E-04   -0.31794E-04  2212   0.998E-02    0.292E-02
RMM:   6    -0.804216366385E+02    0.57464E-05   -0.73223E-05  1741   0.666E-02
  46 F= -.83571034E+02 E0= -.83561958E+02  d E =-.141821E-01
       N       E                     dE             d eps       ncg     rms          rms(c)
DAV:   1    -0.804330067251E+02   -0.11364E-01   -0.13150E+01  2000   0.119E+01    0.621E-01
RMM:   2    -0.804576558605E+02   -0.24649E-01   -0.27105E-01  2463   0.274E+00    0.409E-01
RMM:   3    -0.804639711085E+02   -0.63152E-02   -0.58012E-02  2696   0.100E+00    0.345E-01
RMM:   4    -0.804622017601E+02    0.17693E-02   -0.68316E-03  2496   0.443E-01    0.259E-01
RMM:   5    -0.804617860200E+02    0.41574E-03   -0.27031E-03  2427   0.280E-01    0.119E-01
RMM:   6    -0.804617190106E+02    0.67009E-04   -0.10714E-03  2192   0.229E-01    0.466E-02
RMM:   7    -0.804617280158E+02   -0.90052E-05   -0.36190E-04  2286   0.662E-02    0.321E-02
RMM:   8    -0.804617176906E+02    0.10325E-04   -0.17230E-04  2034   0.827E-02    0.153E-02
RMM:   9    -0.804617152607E+02    0.24298E-05   -0.37072E-05  1510   0.425E-02
  47 F= -.83603370E+02 E0= -.83593922E+02  d E =-.465182E-01
       N       E                     dE             d eps       ncg     rms          rms(c)
DAV:   1    -0.803635247333E+02    0.98193E-01   -0.51914E+01  2000   0.237E+01    0.134E+00
RMM:   2    -0.804744828608E+02   -0.11096E+00   -0.12257E+00  2461   0.588E+00    0.800E-01
RMM:   3    -0.805044372309E+02   -0.29954E-01   -0.28746E-01  2714   0.211E+00    0.709E-01
RMM:   4    -0.805007401780E+02    0.36971E-02   -0.30776E-02  2514   0.879E-01    0.613E-01
RMM:   5    -0.804972754721E+02    0.34647E-02   -0.10598E-02  2377   0.542E-01    0.307E-01
RMM:   6    -0.804976245248E+02   -0.34905E-03   -0.92680E-03  2223   0.553E-01    0.182E-01
RMM:   7    -0.804973063234E+02    0.31820E-03   -0.16708E-03  2535   0.172E-01    0.127E-01
RMM:   8    -0.804969924251E+02    0.31390E-03   -0.16585E-03  2271   0.181E-01    0.326E-02
RMM:   9    -0.804969908179E+02    0.16072E-05   -0.26213E-04  2134   0.973E-02    0.184E-02
RMM:  10    -0.804969955122E+02   -0.46943E-05   -0.81668E-05  1764   0.297E-02
  48 F= -.83623523E+02 E0= -.83613752E+02  d E =-.666713E-01
       N       E                     dE             d eps       ncg     rms          rms(c)
DAV:   1    -0.805072906086E+02   -0.10300E-01   -0.98081E-01  2080   0.329E+00    0.162E-01
RMM:   2    -0.805091627644E+02   -0.18722E-02   -0.20095E-02  2586   0.698E-01    0.106E-01
RMM:   3    -0.805094455075E+02   -0.28274E-03   -0.25952E-03  2678   0.227E-01    0.841E-02
RMM:   4    -0.805093371500E+02    0.10836E-03   -0.47443E-04  2347   0.120E-01    0.576E-02
RMM:   5    -0.805093224066E+02    0.14743E-04   -0.18528E-04  2001   0.756E-02    0.170E-02
RMM:   6    -0.805093163241E+02    0.60825E-05   -0.33732E-05  1517   0.513E-02
  49 F= -.83633684E+02 E0= -.83623912E+02  d E =-.101609E-01
       N       E                     dE             d eps       ncg     rms          rms(c)
DAV:   1    -0.805204258350E+02   -0.11103E-01   -0.88603E+00  2000   0.988E+00    0.491E-01
RMM:   2    -0.805381920902E+02   -0.17766E-01   -0.19017E-01  2562   0.209E+00    0.334E-01
RMM:   3    -0.805401155629E+02   -0.19235E-02   -0.20890E-02  2714   0.654E-01    0.260E-01
RMM:   4    -0.805394699095E+02    0.64565E-03   -0.39351E-03  2523   0.335E-01    0.188E-01
RMM:   5    -0.805390918644E+02    0.37805E-03   -0.18015E-03  2324   0.243E-01    0.527E-02
RMM:   6    -0.805390305033E+02    0.61361E-04   -0.34765E-04  2149   0.143E-01    0.265E-02
RMM:   7    -0.805390300482E+02    0.45516E-06   -0.17112E-04  1957   0.442E-02    0.156E-02
RMM:   8    -0.805390381347E+02   -0.80866E-05   -0.91624E-05  1851   0.703E-02
  50 F= -.83656981E+02 E0= -.83647267E+02  d E =-.334581E-01
       N       E                     dE             d eps       ncg     rms          rms(c)
DAV:   1    -0.804844927687E+02    0.54537E-01   -0.35498E+01  2000   0.195E+01    0.105E+00
RMM:   2    -0.805575342901E+02   -0.73042E-01   -0.77800E-01  2537   0.448E+00    0.678E-01
RMM:   3    -0.805700458948E+02   -0.12512E-01   -0.13093E-01  2720   0.150E+00    0.533E-01
RMM:   4    -0.805677681127E+02    0.22778E-02   -0.18338E-02  2496   0.710E-01    0.415E-01
RMM:   5    -0.805654368399E+02    0.23313E-02   -0.83143E-03  2312   0.500E-01    0.134E-01
RMM:   6    -0.805653194925E+02    0.11735E-03   -0.23170E-03  2207   0.332E-01    0.679E-02
RMM:   7    -0.805653135473E+02    0.59451E-05   -0.85846E-04  2480   0.966E-02    0.408E-02
RMM:   8    -0.805653207789E+02   -0.72316E-05   -0.46782E-04  2243   0.105E-01    0.193E-02
RMM:   9    -0.805653190685E+02    0.17104E-05   -0.77528E-05  1732   0.524E-02
  51 F= -.83670658E+02 E0= -.83661316E+02  d E =-.471352E-01
       N       E                     dE             d eps       ncg     rms          rms(c)
DAV:   1    -0.805606308275E+02    0.46900E-02   -0.14916E+00  2000   0.394E+00    0.203E-01
RMM:   2    -0.805632517552E+02   -0.26209E-02   -0.28797E-02  2500   0.884E-01    0.136E-01
RMM:   3    -0.805638513683E+02   -0.59961E-03   -0.52971E-03  2707   0.306E-01    0.108E-01
RMM:   4    -0.805636407996E+02    0.21057E-03   -0.87104E-04  2345   0.154E-01    0.725E-02
RMM:   5    -0.805636296543E+02    0.11145E-04   -0.27507E-04  2158   0.886E-02    0.225E-02
RMM:   6    -0.805636187999E+02    0.10854E-04   -0.58879E-05  1662   0.608E-02    0.920E-03
RMM:   7    -0.805636211303E+02   -0.23305E-05   -0.27147E-05  1452   0.279E-02
  52 F= -.83671506E+02 E0= -.83662057E+02  d E =-.479833E-01
       N       E                     dE             d eps       ncg     rms          rms(c)
DAV:   1    -0.805707867365E+02   -0.71679E-02   -0.25168E-02  2400   0.574E-01    0.314E-02
RMM:   2    -0.805708335368E+02   -0.46800E-04   -0.64832E-04  2455   0.161E-01    0.205E-02
RMM:   3    -0.805708394928E+02   -0.59559E-05   -0.11245E-04  1896   0.536E-02    0.137E-02
RMM:   4    -0.805708392413E+02    0.25143E-06   -0.18380E-05  1283   0.383E-02
  53 F= -.83678186E+02 E0= -.83668749E+02  d E =-.667949E-02
       N       E                     dE             d eps       ncg     rms          rms(c)
DAV:   1    -0.805913494309E+02   -0.20510E-01   -0.22773E-01  2016   0.172E+00    0.938E-02
RMM:   2    -0.805917678301E+02   -0.41840E-03   -0.54444E-03  2365   0.481E-01    0.621E-02
RMM:   3    -0.805918597896E+02   -0.91959E-04   -0.12702E-03  2577   0.161E-01    0.424E-02
RMM:   4    -0.805918806547E+02   -0.20865E-04   -0.22468E-04  2293   0.802E-02    0.344E-02
RMM:   5    -0.805918462518E+02    0.34403E-04   -0.68733E-05  1749   0.516E-02    0.133E-02
RMM:   6    -0.805918452922E+02    0.95958E-06   -0.21918E-05  1395   0.438E-02
  54 F= -.83697586E+02 E0= -.83688197E+02  d E =-.260800E-01
       N       E                     dE             d eps       ncg     rms          rms(c)
DAV:   1    -0.806290260158E+02   -0.37180E-01   -0.91211E-01  2000   0.343E+00    0.188E-01
RMM:   2    -0.806307169520E+02   -0.16909E-02   -0.21962E-02  2341   0.953E-01    0.129E-01
RMM:   3    -0.806310121627E+02   -0.29521E-03   -0.46900E-03  2708   0.312E-01    0.842E-02
RMM:   4    -0.806310548179E+02   -0.42655E-04   -0.74289E-04  2529   0.123E-01    0.515E-02
RMM:   5    -0.806310465468E+02    0.82710E-05   -0.39267E-04  2396   0.978E-02    0.365E-02
RMM:   6    -0.806309822330E+02    0.64314E-04   -0.77595E-05  1735   0.619E-02    0.106E-02
RMM:   7    -0.806309844512E+02   -0.22182E-05   -0.36283E-05  1538   0.347E-02
  55 F= -.83733561E+02 E0= -.83724257E+02  d E =-.620544E-01
       N       E                     dE             d eps       ncg     rms          rms(c)
DAV:   1    -0.806899659134E+02   -0.58984E-01   -0.36457E+00  2000   0.685E+00    0.372E-01
RMM:   2    -0.806968624459E+02   -0.68965E-02   -0.88517E-02  2381   0.188E+00    0.251E-01
RMM:   3    -0.806980246129E+02   -0.11622E-02   -0.18361E-02  2712   0.604E-01    0.165E-01
RMM:   4    -0.806980384649E+02   -0.13852E-04   -0.30791E-03  2611   0.241E-01    0.867E-02
RMM:   5    -0.806981782735E+02   -0.13981E-03   -0.10026E-03  2551   0.177E-01    0.608E-02
RMM:   6    -0.806979577307E+02    0.22054E-03   -0.36236E-04  2294   0.963E-02    0.214E-02
RMM:   7    -0.806979530991E+02    0.46316E-05   -0.79681E-05  1739   0.516E-02
  56 F= -.83794386E+02 E0= -.83785264E+02  d E =-.122880E+00
       N       E                     dE             d eps       ncg     rms          rms(c)
DAV:   1    -0.807532964378E+02   -0.55339E-01   -0.14514E+01  2000   0.137E+01    0.751E-01
RMM:   2    -0.807821524198E+02   -0.28856E-01   -0.36228E-01  2440   0.382E+00    0.492E-01
RMM:   3    -0.807886216680E+02   -0.64692E-02   -0.85211E-02  2698   0.127E+00    0.346E-01
RMM:   4    -0.807903353624E+02   -0.17137E-02   -0.18310E-02  2679   0.569E-01    0.285E-01
RMM:   5    -0.807882199381E+02    0.21154E-02   -0.50037E-03  2570   0.360E-01    0.137E-01
RMM:   6    -0.807878351443E+02    0.38479E-03   -0.14678E-03  2377   0.258E-01    0.443E-02
RMM:   7    -0.807878804500E+02   -0.45306E-04   -0.65298E-04  2440   0.904E-02    0.237E-02
RMM:   8    -0.807878780617E+02    0.23883E-05   -0.14619E-04  2003   0.757E-02    0.132E-02
RMM:   9    -0.807878830778E+02   -0.50161E-05   -0.70033E-05  1692   0.431E-02
  57 F= -.83872770E+02 E0= -.83864030E+02  d E =-.201263E+00
       N       E                     dE             d eps       ncg     rms          rms(c)
DAV:   1    -0.806346602999E+02    0.15322E+00   -0.57348E+01  2000   0.277E+01    0.159E+00
RMM:   2    -0.807804985368E+02   -0.14584E+00   -0.17380E+00  2691   0.770E+00    0.942E-01
RMM:   3    -0.808104253886E+02   -0.29927E-01   -0.32365E-01  2718   0.241E+00    0.814E-01
RMM:   4    -0.808024739518E+02    0.79514E-02   -0.56241E-02  2658   0.107E+00    0.638E-01
RMM:   5    -0.807976761955E+02    0.47978E-02   -0.16519E-02  2622   0.636E-01    0.306E-01
RMM:   6    -0.807968714778E+02    0.80472E-03   -0.78190E-03  2348   0.563E-01    0.121E-01
RMM:   7    -0.807968544044E+02    0.17073E-04   -0.23267E-03  2554   0.194E-01    0.807E-02
RMM:   8    -0.807967369023E+02    0.11750E-03   -0.96118E-04  2409   0.151E-01    0.300E-02
RMM:   9    -0.807967415396E+02   -0.46372E-05   -0.31724E-04  2305   0.816E-02    0.107E-02
RMM:  10    -0.807967497832E+02   -0.82436E-05   -0.90002E-05  1789   0.304E-02
  58 F= -.83861409E+02 E0= -.83853309E+02  d E =-.189903E+00
       N       E                     dE             d eps       ncg     rms          rms(c)
DAV:   1    -0.807762032279E+02    0.20538E-01   -0.17778E+01  2000   0.153E+01    0.846E-01
RMM:   2    -0.808152474452E+02   -0.39044E-01   -0.47753E-01  2504   0.425E+00    0.536E-01
RMM:   3    -0.808215508508E+02   -0.63034E-02   -0.89053E-02  2712   0.133E+00    0.372E-01
RMM:   4    -0.808228376566E+02   -0.12868E-02   -0.15925E-02  2667   0.573E-01    0.311E-01
RMM:   5    -0.808198646166E+02    0.29730E-02   -0.56031E-03  2542   0.401E-01    0.104E-01
RMM:   6    -0.808197449471E+02    0.11967E-03   -0.17912E-03  2488   0.244E-01    0.443E-02
RMM:   7    -0.808197602896E+02   -0.15342E-04   -0.58027E-04  2420   0.920E-02    0.237E-02
RMM:   8    -0.808197641079E+02   -0.38183E-05   -0.17742E-04  2121   0.628E-02    0.103E-02
RMM:   9    -0.808197676272E+02   -0.35193E-05   -0.52911E-05  1597   0.375E-02
  59 F= -.83895202E+02 E0= -.83886765E+02  d E =-.223696E+00
       N       E                     dE             d eps       ncg     rms          rms(c)
DAV:   1    -0.808389470683E+02   -0.19183E-01   -0.81528E-01  2016   0.321E+00    0.242E-01
RMM:   2    -0.808395366961E+02   -0.58963E-03   -0.17617E-02  2462   0.899E-01    0.162E-01
RMM:   3    -0.808397431929E+02   -0.20650E-03   -0.73858E-03  2608   0.353E-01    0.812E-02
RMM:   4    -0.808398526791E+02   -0.10949E-03   -0.15621E-03  2461   0.199E-01    0.662E-02
RMM:   5    -0.808398794193E+02   -0.26740E-04   -0.28576E-04  2097   0.834E-02    0.481E-02
RMM:   6    -0.808398516792E+02    0.27740E-04   -0.11156E-04  1845   0.739E-02    0.279E-02
RMM:   7    -0.808398411861E+02    0.10493E-04   -0.41738E-05  1526   0.416E-02    0.169E-02
RMM:   8    -0.808398383262E+02    0.28598E-05   -0.15078E-05  1333   0.282E-02
  60 F= -.83913352E+02 E0= -.83904964E+02  d E =-.181497E-01
       N       E                     dE             d eps       ncg     rms          rms(c)
DAV:   1    -0.808418871238E+02   -0.20459E-02   -0.11976E-01  2336   0.122E+00    0.925E-02
RMM:   2    -0.808419865046E+02   -0.99381E-04   -0.28050E-03  2500   0.356E-01    0.624E-02
RMM:   3    -0.808420212440E+02   -0.34739E-04   -0.10774E-03  2375   0.131E-01    0.361E-02
RMM:   4    -0.808420419075E+02   -0.20664E-04   -0.21240E-04  1989   0.767E-02    0.288E-02
RMM:   5    -0.808420450060E+02   -0.30984E-05   -0.42230E-05  1562   0.398E-02
  61 F= -.83914830E+02 E0= -.83906446E+02  d E =-.196285E-01
       N       E                     dE             d eps       ncg     rms          rms(c)
DAV:   1    -0.808469457974E+02   -0.49039E-02   -0.20797E-02  2304   0.544E-01    0.360E-02
RMM:   2    -0.808469973106E+02   -0.51513E-04   -0.71702E-04  2586   0.180E-01    0.222E-02
RMM:   3    -0.808470137477E+02   -0.16437E-04   -0.16230E-04  1994   0.597E-02    0.190E-02
RMM:   4    -0.808470055182E+02    0.82295E-05   -0.30497E-05  1409   0.440E-02
  62 F= -.83919343E+02 E0= -.83910975E+02  d E =-.451270E-02
       N       E                     dE             d eps       ncg     rms          rms(c)
DAV:   1    -0.808608646559E+02   -0.13851E-01   -0.18723E-01  2000   0.161E+00    0.972E-02
RMM:   2    -0.808612347782E+02   -0.37012E-03   -0.52231E-03  2419   0.500E-01    0.630E-02
RMM:   3    -0.808613251020E+02   -0.90324E-04   -0.12939E-03  2548   0.154E-01    0.414E-02
RMM:   4    -0.808613542428E+02   -0.29141E-04   -0.28097E-04  2335   0.836E-02    0.321E-02
RMM:   5    -0.808613246547E+02    0.29588E-04   -0.90824E-05  1854   0.504E-02    0.154E-02
RMM:   6    -0.808613178090E+02    0.68457E-05   -0.22613E-05  1393   0.447E-02
  63 F= -.83932323E+02 E0= -.83923957E+02  d E =-.174927E-01
       N       E                     dE             d eps       ncg     rms          rms(c)
DAV:   1    -0.808855092990E+02   -0.24185E-01   -0.74949E-01  2000   0.322E+00    0.191E-01
RMM:   2    -0.808870050791E+02   -0.14958E-02   -0.20797E-02  2411   0.979E-01    0.123E-01
RMM:   3    -0.808873488651E+02   -0.34379E-03   -0.49363E-03  2700   0.303E-01    0.807E-02
RMM:   4    -0.808874438182E+02   -0.94953E-04   -0.10429E-03  2594   0.142E-01    0.636E-02
RMM:   5    -0.808873205570E+02    0.12326E-03   -0.36256E-04  2418   0.940E-02    0.304E-02
RMM:   6    -0.808872940020E+02    0.26555E-04   -0.77431E-05  1770   0.665E-02    0.108E-02
RMM:   7    -0.808872995311E+02   -0.55290E-05   -0.49767E-05  1618   0.319E-02
  64 F= -.83955690E+02 E0= -.83947331E+02  d E =-.408593E-01
       N       E                     dE             d eps       ncg     rms          rms(c)
DAV:   1    -0.809215933602E+02   -0.34299E-01   -0.29960E+00  2000   0.644E+00    0.378E-01
RMM:   2    -0.809277147551E+02   -0.61214E-02   -0.83501E-02  2406   0.196E+00    0.247E-01
RMM:   3    -0.809292922611E+02   -0.15775E-02   -0.19910E-02  2712   0.613E-01    0.173E-01
RMM:   4    -0.809294030540E+02   -0.11079E-03   -0.42617E-03  2670   0.278E-01    0.132E-01
RMM:   5    -0.809289296491E+02    0.47340E-03   -0.13795E-03  2662   0.178E-01    0.565E-02
RMM:   6    -0.809288574993E+02    0.72150E-04   -0.29904E-04  2203   0.121E-01    0.207E-02
RMM:   7    -0.809288736534E+02   -0.16154E-04   -0.17193E-04  1978   0.452E-02    0.110E-02
RMM:   8    -0.809288741340E+02   -0.48062E-06   -0.37330E-05  1529   0.434E-02
  65 F= -.83992225E+02 E0= -.83983867E+02  d E =-.773945E-01
       N       E                     dE             d eps       ncg     rms          rms(c)
DAV:   1    -0.809406523847E+02   -0.11779E-01   -0.11945E+01  2000   0.129E+01    0.758E-01
RMM:   2    -0.809678285926E+02   -0.27176E-01   -0.35282E-01  2474   0.392E+00    0.497E-01
RMM:   3    -0.809752218944E+02   -0.73933E-02   -0.82154E-02  2732   0.128E+00    0.388E-01
RMM:   4    -0.809729059267E+02    0.23160E-02   -0.16749E-02  2661   0.539E-01    0.262E-01
RMM:   5    -0.809719176042E+02    0.98832E-03   -0.48990E-03  2694   0.324E-01    0.983E-02
RMM:   6    -0.809717756166E+02    0.14199E-03   -0.12561E-03  2412   0.216E-01    0.439E-02
RMM:   7    -0.809717922240E+02   -0.16607E-04   -0.48384E-04  2345   0.921E-02    0.206E-02
RMM:   8    -0.809717982089E+02   -0.59849E-05   -0.14330E-04  2017   0.529E-02    0.950E-03
RMM:   9    -0.809718037835E+02   -0.55746E-05   -0.52548E-05  1648   0.370E-02
  66 F= -.84025781E+02 E0= -.84017467E+02  d E =-.110950E+00
       N       E                     dE             d eps       ncg     rms          rms(c)
DAV:   1    -0.809730483331E+02   -0.12501E-02   -0.23379E-01  2352   0.179E+00    0.105E-01
RMM:   2    -0.809735245483E+02   -0.47622E-03   -0.65199E-03  2417   0.560E-01    0.647E-02
RMM:   3    -0.809736658356E+02   -0.14129E-03   -0.17232E-03  2598   0.177E-01    0.461E-02
RMM:   4    -0.809736709500E+02   -0.51144E-05   -0.35000E-04  2347   0.918E-02    0.345E-02
RMM:   5    -0.809736483082E+02    0.22642E-04   -0.10526E-04  1943   0.532E-02    0.167E-02
RMM:   6    -0.809736435356E+02    0.47726E-05   -0.25911E-05  1459   0.471E-02
  67 F= -.84026380E+02 E0= -.84018074E+02  d E =-.111549E+00
       N       E                     dE             d eps       ncg     rms          rms(c)
DAV:   1    -0.809825430333E+02   -0.88947E-02   -0.24708E-01  2064   0.190E+00    0.150E-01
RMM:   2    -0.809831903337E+02   -0.64730E-03   -0.95187E-03  2469   0.666E-01    0.834E-02
RMM:   3    -0.809834718682E+02   -0.28153E-03   -0.29311E-03  2666   0.235E-01    0.676E-02
RMM:   4    -0.809833288140E+02    0.14305E-03   -0.56714E-04  2489   0.115E-01    0.465E-02
RMM:   5    -0.809833129840E+02    0.15830E-04   -0.13273E-04  2013   0.579E-02    0.291E-02
RMM:   6    -0.809833104176E+02    0.25664E-05   -0.40128E-05  1595   0.536E-02
  68 F= -.84034365E+02 E0= -.84026142E+02  d E =-.798532E-02
       N       E                     dE             d eps       ncg     rms          rms(c)
DAV:   1    -0.809862146267E+02   -0.29016E-02   -0.26878E-01  2000   0.198E+00    0.157E-01
RMM:   2    -0.809869192998E+02   -0.70467E-03   -0.10446E-02  2463   0.705E-01    0.877E-02
RMM:   3    -0.809872409708E+02   -0.32167E-03   -0.33303E-03  2668   0.251E-01    0.722E-02
RMM:   4    -0.809870864663E+02    0.15450E-03   -0.66784E-04  2490   0.122E-01    0.508E-02
RMM:   5    -0.809870698437E+02    0.16623E-04   -0.14912E-04  2059   0.608E-02    0.328E-02
RMM:   6    -0.809870674085E+02    0.24352E-05   -0.47983E-05  1683   0.572E-02
  69 F= -.84036402E+02 E0= -.84028271E+02  d E =-.100229E-01
       N       E                     dE             d eps       ncg     rms          rms(c)
DAV:   1    -0.809880033904E+02   -0.93355E-03   -0.15036E-03  2592   0.152E-01    0.126E-02
RMM:   2    -0.809880080735E+02   -0.46832E-05   -0.70417E-05  1811   0.576E-02
  70 F= -.84037204E+02 E0= -.84029070E+02  d E =-.801729E-03
       N       E                     dE             d eps       ncg     rms          rms(c)
DAV:   1    -0.809906124924E+02   -0.26091E-02   -0.14265E-02  2280   0.457E-01    0.373E-02
RMM:   2    -0.809906721529E+02   -0.59661E-04   -0.67945E-04  2652   0.155E-01    0.216E-02
RMM:   3    -0.809906818007E+02   -0.96477E-05   -0.15643E-04  2048   0.594E-02    0.200E-02
RMM:   4    -0.809906660980E+02    0.15703E-04   -0.23893E-05  1343   0.378E-02    0.103E-02
RMM:   5    -0.809906670076E+02   -0.90968E-06   -0.11880E-05  1258   0.239E-02
  71 F= -.84039448E+02 E0= -.84031334E+02  d E =-.304545E-02
       N       E                     dE             d eps       ncg     rms          rms(c)
DAV:   1    -0.809950179038E+02   -0.43518E-02   -0.55321E-02  2032   0.898E-01    0.669E-02
RMM:   2    -0.809952131773E+02   -0.19527E-03   -0.24099E-03  2488   0.336E-01    0.336E-02
RMM:   3    -0.809952909245E+02   -0.77747E-04   -0.68989E-04  2478   0.112E-01    0.303E-02
RMM:   4    -0.809952570944E+02    0.33830E-04   -0.11682E-04  1961   0.588E-02    0.194E-02
RMM:   5    -0.809952545837E+02    0.25107E-05   -0.25531E-05  1426   0.329E-02
  72 F= -.84043212E+02 E0= -.84035143E+02  d E =-.680951E-02
       N       E                     dE             d eps       ncg     rms          rms(c)
DAV:   1    -0.810007068402E+02   -0.54497E-02   -0.22158E-01  2000   0.179E+00    0.136E-01
RMM:   2    -0.810014221792E+02   -0.71534E-03   -0.90539E-03  2499   0.628E-01    0.673E-02
RMM:   3    -0.810017169052E+02   -0.29473E-03   -0.25847E-03  2668   0.212E-01    0.609E-02
RMM:   4    -0.810015702392E+02    0.14667E-03   -0.45820E-04  2444   0.101E-01    0.388E-02
RMM:   5    -0.810015610823E+02    0.91568E-05   -0.11570E-04  1993   0.489E-02    0.217E-02
RMM:   6    -0.810015585091E+02    0.25732E-05   -0.43212E-05  1639   0.482E-02
  73 F= -.84047897E+02 E0= -.84039943E+02  d E =-.114942E-01
       N       E                     dE             d eps       ncg     rms          rms(c)
DAV:   1    -0.809994381972E+02    0.21229E-02   -0.88880E-01  2000   0.360E+00    0.273E-01
RMM:   2    -0.810022795665E+02   -0.28414E-02   -0.35750E-02  2477   0.128E+00    0.137E-01
RMM:   3    -0.810034760141E+02   -0.11964E-02   -0.10938E-02  2680   0.441E-01    0.121E-01
RMM:   4    -0.810029288525E+02    0.54716E-03   -0.19760E-03  2613   0.205E-01    0.802E-02
RMM:   5    -0.810028749567E+02    0.53896E-04   -0.50268E-04  2515   0.974E-02    0.496E-02
RMM:   6    -0.810028581216E+02    0.16835E-04   -0.19212E-04  2256   0.839E-02    0.133E-02
RMM:   7    -0.810028592733E+02   -0.11517E-05   -0.56542E-05  1655   0.384E-02
  74 F= -.84046069E+02 E0= -.84038326E+02  d E =-.966623E-02
       N       E                     dE             d eps       ncg     rms          rms(c)
DAV:   1    -0.810026233082E+02    0.23481E-03   -0.33564E-01  2000   0.221E+00    0.166E-01
RMM:   2    -0.810036598996E+02   -0.10366E-02   -0.13067E-02  2457   0.764E-01    0.842E-02
RMM:   3    -0.810041334158E+02   -0.47352E-03   -0.39274E-03  2651   0.270E-01    0.775E-02
RMM:   4    -0.810038513483E+02    0.28207E-03   -0.70669E-04  2487   0.132E-01    0.449E-02
RMM:   5    -0.810038362997E+02    0.15049E-04   -0.16838E-04  2252   0.578E-02    0.240E-02
RMM:   6    -0.810038336266E+02    0.26730E-05   -0.56303E-05  1805   0.505E-02
  75 F= -.84048947E+02 E0= -.84041055E+02  d E =-.125450E-01
       N       E                     dE             d eps       ncg     rms          rms(c)
DAV:   1    -0.810040910892E+02   -0.25479E-03   -0.25278E-03  2448   0.197E-01    0.178E-02
RMM:   2    -0.810040977544E+02   -0.66652E-05   -0.12584E-04  2106   0.691E-02    0.984E-03
RMM:   3    -0.810040999880E+02   -0.22336E-05   -0.29279E-05  1395   0.352E-02
  76 F= -.84049335E+02 E0= -.84041450E+02  d E =-.387685E-03
       N       E                     dE             d eps       ncg     rms          rms(c)
DAV:   1    -0.810042762787E+02   -0.17852E-03   -0.22845E-02  2128   0.582E-01    0.530E-02
RMM:   2    -0.810043288286E+02   -0.52550E-04   -0.97952E-04  2556   0.206E-01    0.317E-02
RMM:   3    -0.810043331406E+02   -0.43119E-05   -0.24549E-04  2110   0.663E-02    0.198E-02
RMM:   4    -0.810043402340E+02   -0.70934E-05   -0.56019E-05  1649   0.478E-02
  77 F= -.84049941E+02 E0= -.84042001E+02  d E =-.993923E-03
       N       E                     dE             d eps       ncg     rms          rms(c)
DAV:   1    -0.810042729489E+02    0.60192E-04   -0.11110E-03  2728   0.139E-01    0.152E-02
RMM:   2    -0.810042824849E+02   -0.95360E-05   -0.72126E-05  1888   0.504E-02
  78 F= -.84049962E+02 E0= -.84042008E+02  d E =-.101454E-02
       N       E                     dE             d eps       ncg     rms          rms(c)
DAV:   1    -0.810045261197E+02   -0.25317E-03   -0.15930E-03  2400   0.160E-01    0.182E-02
RMM:   2    -0.810045376235E+02   -0.11504E-04   -0.11434E-04  2129   0.593E-02    0.113E-02
RMM:   3    -0.810045361450E+02    0.14785E-05   -0.22445E-05  1324   0.391E-02
  79 F= -.84050309E+02 E0= -.84042379E+02  d E =-.346841E-03
       N       E                     dE             d eps       ncg     rms          rms(c)
[...]
RMM:   4    -0.810290020103E+02    0.21390E-04   -0.45663E-04  2348   0.101E-01    0.418E-02
RMM:   5    -0.810289763573E+02    0.25653E-04   -0.12072E-04  1976   0.626E-02    0.162E-02
RMM:   6    -0.810289717737E+02    0.45836E-05   -0.28356E-05  1461   0.486E-02
 121 F= -.84064107E+02 E0= -.84056315E+02  d E =-.716026E-03
       N       E                     dE             d eps       ncg     rms          rms(c)
DAV:   1    -0.810282549467E+02    0.72141E-03   -0.10609E-01  2000   0.115E+00    0.687E-02
RMM:   2    -0.810284274038E+02   -0.17246E-03   -0.22249E-03  2457   0.329E-01    0.404E-02
RMM:   3    -0.810284980521E+02   -0.70648E-04   -0.72780E-04  2320   0.113E-01    0.293E-02
RMM:   4    -0.810284920411E+02    0.60111E-05   -0.14172E-04  1906   0.662E-02    0.224E-02
RMM:   5    -0.810284849965E+02    0.70446E-05   -0.22917E-05  1376   0.383E-02
 122 F= -.84064279E+02 E0= -.84056466E+02  d E =-.887698E-03
       N       E                     dE             d eps       ncg     rms          rms(c)
DAV:   1    -0.810286767621E+02   -0.18472E-03   -0.23392E-03  2320   0.177E-01    0.104E-02
RMM:   2    -0.810286822360E+02   -0.54739E-05   -0.71696E-05  1461   0.472E-02
 123 F= -.84064382E+02 E0= -.84056566E+02  d E =-.102897E-03
       N       E                     dE             d eps       ncg     rms          rms(c)
DAV:   1    -0.810291707635E+02   -0.49400E-03   -0.20590E-02  2000   0.508E-01    0.343E-02
RMM:   2    -0.810292028629E+02   -0.32099E-04   -0.46294E-04  2457   0.143E-01    0.215E-02
RMM:   3    -0.810292216564E+02   -0.18794E-04   -0.14384E-04  1765   0.559E-02    0.198E-02
RMM:   4    -0.810292093713E+02    0.12285E-04   -0.25251E-05  1345   0.429E-02    0.103E-02
RMM:   5    -0.810292098857E+02   -0.51443E-06   -0.93467E-06  1274   0.233E-02
 124 F= -.84064627E+02 E0= -.84056814E+02  d E =-.347953E-03
       N       E                     dE             d eps       ncg     rms          rms(c)
DAV:   1    -0.810297992435E+02   -0.58987E-03   -0.81236E-02  2000   0.100E+00    0.604E-02
RMM:   2    -0.810299330595E+02   -0.13382E-03   -0.17974E-03  2468   0.290E-01    0.370E-02
RMM:   3    -0.810299948872E+02   -0.61828E-04   -0.61638E-04  2259   0.101E-01    0.272E-02
RMM:   4    -0.810299903438E+02    0.45434E-05   -0.11102E-04  1857   0.590E-02    0.210E-02
RMM:   5    -0.810299854939E+02    0.48499E-05   -0.21737E-05  1345   0.363E-02
 125 F= -.84064839E+02 E0= -.84057042E+02  d E =-.560350E-03
       N       E                     dE             d eps       ncg     rms          rms(c)
DAV:   1    -0.810300419391E+02   -0.51595E-04   -0.82616E-04  2840   0.113E-01    0.720E-03
RMM:   2    -0.810300435039E+02   -0.15648E-05   -0.24234E-05  1331   0.322E-02
 126 F= -.84064839E+02 E0= -.84057048E+02  d E =-.560685E-03
       N       E                     dE             d eps       ncg     rms          rms(c)
DAV:   1    -0.810300150895E+02    0.26850E-04   -0.20760E-04  2416   0.594E-02    0.347E-03
RMM:   2    -0.810300158104E+02   -0.72093E-06   -0.45667E-06  1116   0.159E-02
 127 F= -.84064841E+02 E0= -.84057049E+02  d E =-.561820E-03
       N       E                     dE             d eps       ncg     rms          rms(c)
DAV:   1    -0.810300301290E+02   -0.15039E-04   -0.48229E-05  2048   0.306E-02    0.226E-03
RMM:   2    -0.810300307550E+02   -0.62600E-06   -0.35513E-06  1098   0.164E-02
 128 F= -.84064841E+02 E0= -.84057050E+02  d E =-.562388E-03
       N       E                     dE             d eps       ncg     rms          rms(c)
DAV:   1    -0.810300240603E+02    0.60687E-05   -0.10848E-05  1864   0.189E-02    0.992E-04
RMM:   2    -0.810300241479E+02   -0.87633E-07   -0.54526E-07   793   0.577E-03
 129 F= -.84064841E+02 E0= -.84057053E+02  d E =-.562008E-03
       N       E                     dE             d eps       ncg     rms          rms(c)
DAV:   1    -0.810301223018E+02   -0.98241E-04   -0.61087E-04  2016   0.867E-02    0.506E-03
RMM:   2    -0.810301230848E+02   -0.78299E-06   -0.11671E-05  1161   0.265E-02
 130 F= -.84064892E+02 E0= -.84057104E+02  d E =-.508969E-04
       N       E                     dE             d eps       ncg     rms          rms(c)
DAV:   1    -0.810303997604E+02   -0.27746E-03   -0.57417E-03  2000   0.267E-01    0.176E-02
RMM:   2    -0.810304102870E+02   -0.10527E-04   -0.13546E-04  1749   0.740E-02    0.118E-02
RMM:   3    -0.810304127889E+02   -0.25019E-05   -0.29971E-05  1393   0.362E-02
 131 F= -.84065037E+02 E0= -.84057270E+02  d E =-.196623E-03
       N       E                     dE             d eps       ncg     rms          rms(c)
DAV:   1    -0.810308874598E+02   -0.47717E-03   -0.22705E-02  2000   0.531E-01    0.335E-02
RMM:   2    -0.810309253033E+02   -0.37844E-04   -0.52874E-04  2471   0.147E-01    0.214E-02
RMM:   3    -0.810309340832E+02   -0.87799E-05   -0.12313E-04  1707   0.505E-02    0.122E-02
RMM:   4    -0.810309374356E+02   -0.33524E-05   -0.28887E-05  1387   0.429E-02
 132 F= -.84065275E+02 E0= -.84057490E+02  d E =-.433829E-03
       N       E                     dE             d eps       ncg     rms          rms(c)
DAV:   1    -0.810315969439E+02   -0.66286E-03   -0.90755E-02  2000   0.106E+00    0.616E-02
RMM:   2    -0.810317449794E+02   -0.14804E-03   -0.19214E-03  2580   0.281E-01    0.385E-02
RMM:   3    -0.810318052747E+02   -0.60295E-04   -0.53489E-04  2275   0.928E-02    0.315E-02
RMM:   4    -0.810317845392E+02    0.20735E-04   -0.10888E-04  1820   0.602E-02    0.199E-02
RMM:   5    -0.810317821747E+02    0.23645E-05   -0.22855E-05  1369   0.351E-02
 133 F= -.84065547E+02 E0= -.84057791E+02  d E =-.706126E-03
       N       E                     dE             d eps       ncg     rms          rms(c)
DAV:   1    -0.810319367154E+02   -0.15218E-03   -0.36212E-01  2000   0.211E+00    0.121E-01
RMM:   2    -0.810324959582E+02   -0.55924E-03   -0.74134E-03  2477   0.571E-01    0.740E-02
RMM:   3    -0.810326789790E+02   -0.18302E-03   -0.21934E-03  2523   0.186E-01    0.448E-02
RMM:   4    -0.810327423848E+02   -0.63406E-04   -0.50241E-04  2387   0.106E-01    0.388E-02
RMM:   5    -0.810326890670E+02    0.53318E-04   -0.10248E-04  1862   0.571E-02    0.135E-02
RMM:   6    -0.810326862708E+02    0.27962E-05   -0.31679E-05  1495   0.481E-02
 134 F= -.84065315E+02 E0= -.84057619E+02  d E =-.474660E-03
       N       E                     dE             d eps       ncg     rms          rms(c)
DAV:   1    -0.810318468679E+02    0.84220E-03   -0.17603E-01  2000   0.147E+00    0.855E-02
RMM:   2    -0.810320916905E+02   -0.24482E-03   -0.32626E-03  2433   0.382E-01    0.515E-02
RMM:   3    -0.810321589970E+02   -0.67306E-04   -0.10312E-03  2369   0.130E-01    0.283E-02
RMM:   4    -0.810321722935E+02   -0.13296E-04   -0.17721E-04  2007   0.713E-02    0.145E-02
RMM:   5    -0.810321734220E+02   -0.11286E-05   -0.28965E-05  1429   0.356E-02
 135 F= -.84065591E+02 E0= -.84057843E+02  d E =-.750626E-03
       N       E                     dE             d eps       ncg     rms          rms(c)
DAV:   1    -0.810323378995E+02   -0.16561E-03   -0.25034E-03  2176   0.185E-01    0.107E-02
RMM:   2    -0.810323446194E+02   -0.67199E-05   -0.74728E-05  1469   0.494E-02
 136 F= -.84065674E+02 E0= -.84057939E+02  d E =-.825218E-04
       N       E                     dE             d eps       ncg     rms          rms(c)
DAV:   1    -0.810326890105E+02   -0.35111E-03   -0.16261E-02  2000   0.448E-01    0.323E-02
RMM:   2    -0.810327125950E+02   -0.23585E-04   -0.34781E-04  2353   0.118E-01    0.221E-02
RMM:   3    -0.810327224787E+02   -0.98837E-05   -0.11438E-04  1637   0.525E-02    0.207E-02
RMM:   4    -0.810327125125E+02    0.99662E-05   -0.23248E-05  1335   0.398E-02
 137 F= -.84065817E+02 E0= -.84058098E+02  d E =-.225417E-03
       N       E                     dE             d eps       ncg     rms          rms(c)
DAV:   1    -0.810330082912E+02   -0.28581E-03   -0.63545E-02  2000   0.876E-01    0.544E-02
RMM:   2    -0.810330954385E+02   -0.87147E-04   -0.12727E-03  2411   0.243E-01    0.353E-02
RMM:   3    -0.810331271432E+02   -0.31705E-04   -0.44383E-04  2102   0.861E-02    0.209E-02
RMM:   4    -0.810331387532E+02   -0.11610E-04   -0.93777E-05  1764   0.569E-02    0.157E-02
RMM:   5    -0.810331336960E+02    0.50572E-05   -0.17407E-05  1341   0.312E-02
 138 F= -.84065789E+02 E0= -.84058085E+02  d E =-.198063E-03
       N       E                     dE             d eps       ncg     rms          rms(c)
DAV:   1    -0.810329021443E+02    0.23661E-03   -0.21027E-02  2000   0.505E-01    0.306E-02
RMM:   2    -0.810329348785E+02   -0.32734E-04   -0.45181E-04  2278   0.136E-01    0.188E-02
RMM:   3    -0.810329448191E+02   -0.99406E-05   -0.12858E-04  1555   0.499E-02    0.128E-02
RMM:   4    -0.810329450161E+02   -0.19694E-06   -0.24883E-05  1350   0.421E-02
 139 F= -.84065858E+02 E0= -.84058151E+02  d E =-.266412E-03
       N       E                     dE             d eps       ncg     rms          rms(c)
DAV:   1    -0.810329630341E+02   -0.18215E-04   -0.14362E-04  2208   0.537E-02    0.549E-03
RMM:   2    -0.810329636188E+02   -0.58466E-06   -0.61902E-06  1125   0.217E-02
 140 F= -.84065857E+02 E0= -.84058142E+02  d E =-.265234E-03
       N       E                     dE             d eps       ncg     rms          rms(c)
DAV:   1    -0.810329505975E+02    0.12437E-04   -0.51090E-05  2000   0.310E-02    0.236E-03
RMM:   2    -0.810329514135E+02   -0.81597E-06   -0.32892E-06  1083   0.148E-02
 141 F= -.84065858E+02 E0= -.84058148E+02  d E =-.266441E-03
       N       E                     dE             d eps       ncg     rms          rms(c)
DAV:   1    -0.810329573861E+02   -0.67886E-05   -0.16417E-05  2000   0.224E-02    0.115E-03
RMM:   2    -0.810329575004E+02   -0.11425E-06   -0.66704E-07   872   0.592E-03
 142 F= -.84065857E+02 E0= -.84058142E+02  d E =-.265822E-03
       N       E                     dE             d eps       ncg     rms          rms(c)
DAV:   1    -0.810329541799E+02    0.32062E-05   -0.24396E-06  1600   0.859E-03    0.896E-04
RMM:   2    -0.810329542888E+02   -0.10882E-06   -0.64505E-07   892   0.761E-03
 143 F= -.84065857E+02 E0= -.84058144E+02  d E =-.265974E-03
       N       E                     dE             d eps       ncg     rms          rms(c)
DAV:   1    -0.810330193100E+02   -0.65130E-04   -0.37160E-04  1984   0.658E-02    0.374E-03
RMM:   2    -0.810330197134E+02   -0.40334E-06   -0.60399E-06  1061   0.187E-02
 144 F= -.84065890E+02 E0= -.84058176E+02  d E =-.324503E-04
       N       E                     dE             d eps       ncg     rms          rms(c)
DAV:   1    -0.810332071443E+02   -0.18783E-03   -0.35472E-03  2000   0.203E-01    0.132E-02
RMM:   2    -0.810332131601E+02   -0.60158E-05   -0.71247E-05  1439   0.557E-02
 145 F= -.84065984E+02 E0= -.84058281E+02  d E =-.127032E-03
       N       E                     dE             d eps       ncg     rms          rms(c)
DAV:   1    -0.810335586971E+02   -0.35155E-03   -0.14183E-02  2000   0.409E-01    0.299E-02
RMM:   2    -0.810335887840E+02   -0.30087E-04   -0.31802E-04  2363   0.102E-01    0.215E-02
RMM:   3    -0.810335879341E+02    0.84997E-06   -0.83572E-05  1568   0.482E-02
 146 F= -.84066162E+02 E0= -.84058441E+02  d E =-.304341E-03
       N       E                     dE             d eps       ncg     rms          rms(c)
DAV:   1    -0.810341326469E+02   -0.54386E-03   -0.55959E-02  2000   0.802E-01    0.519E-02
RMM:   2    -0.810342127026E+02   -0.80056E-04   -0.10749E-03  2471   0.225E-01    0.325E-02
RMM:   3    -0.810342714259E+02   -0.58723E-04   -0.46555E-04  2182   0.922E-02    0.268E-02
RMM:   4    -0.810342506521E+02    0.20774E-04   -0.74290E-05  1665   0.518E-02    0.147E-02
RMM:   5    -0.810342504935E+02    0.15867E-06   -0.17220E-05  1325   0.290E-02
 147 F= -.84066430E+02 E0= -.84058733E+02  d E =-.573090E-03
       N       E                     dE             d eps       ncg     rms          rms(c)
DAV:   1    -0.810348306721E+02   -0.58002E-03   -0.22447E-01  2000   0.160E+00    0.930E-02
RMM:   2    -0.810351803907E+02   -0.34972E-03   -0.43587E-03  2532   0.420E-01    0.565E-02
RMM:   3    -0.810353243192E+02   -0.14393E-03   -0.13548E-03  2480   0.145E-01    0.382E-02
RMM:   4    -0.810353109507E+02    0.13368E-04   -0.25247E-04  2107   0.791E-02    0.280E-02
RMM:   5    -0.810353012716E+02    0.96791E-05   -0.43153E-05  1542   0.404E-02
 148 F= -.84066698E+02 E0= -.84059022E+02  d E =-.840497E-03
       N       E                     dE             d eps       ncg     rms          rms(c)
DAV:   1    -0.810354673482E+02   -0.15640E-03   -0.32360E-03  2448   0.201E-01    0.124E-02
RMM:   2    -0.810354740720E+02   -0.67238E-05   -0.90010E-05  1500   0.517E-02
 149 F= -.84066786E+02 E0= -.84059123E+02  d E =-.880593E-04
       N       E                     dE             d eps       ncg     rms          rms(c)
DAV:   1    -0.810357406812E+02   -0.27333E-03   -0.14056E-02  2000   0.399E-01    0.299E-02
RMM:   2    -0.810357567591E+02   -0.16078E-04   -0.27774E-04  1967   0.997E-02    0.192E-02
RMM:   3    -0.810357637087E+02   -0.69496E-05   -0.88964E-05  1432   0.466E-02
 150 F= -.84066901E+02 E0= -.84059243E+02  d E =-.203612E-03
       N       E                     dE             d eps       ncg     rms          rms(c)
DAV:   1    -0.810359372303E+02   -0.18047E-03   -0.55303E-02  2000   0.785E-01    0.531E-02
RMM:   2    -0.810360356245E+02   -0.98394E-04   -0.12516E-03  2669   0.217E-01    0.365E-02
RMM:   3    -0.810360866432E+02   -0.51019E-04   -0.45825E-04  2064   0.900E-02    0.354E-02
RMM:   4    -0.810360581253E+02    0.28518E-04   -0.66234E-05  1607   0.531E-02    0.177E-02
RMM:   5    -0.810360595702E+02   -0.14449E-05   -0.18211E-05  1369   0.260E-02
 151 F= -.84066850E+02 E0= -.84059199E+02  d E =-.152068E-03
       N       E                     dE             d eps       ncg     rms          rms(c)
DAV:   1    -0.810358441029E+02    0.21402E-03   -0.25056E-02  2000   0.528E-01    0.340E-02
RMM:   2    -0.810358867351E+02   -0.42632E-04   -0.56313E-04  2174   0.147E-01    0.205E-02
RMM:   3    -0.810358992615E+02   -0.12526E-04   -0.18515E-04  1507   0.542E-02    0.112E-02
RMM:   4    -0.810359031523E+02   -0.38907E-05   -0.29314E-05  1343   0.384E-02
 152 F= -.84066927E+02 E0= -.84059272E+02  d E =-.229374E-03
       N       E                     dE             d eps       ncg     rms          rms(c)
DAV:   1    -0.810359405706E+02   -0.41309E-04   -0.78942E-04  2488   0.102E-01    0.770E-03
RMM:   2    -0.810359447090E+02   -0.41385E-05   -0.23072E-05  1309   0.317E-02
 153 F= -.84066928E+02 E0= -.84059264E+02  d E =-.229830E-03
       N       E                     dE             d eps       ncg     rms          rms(c)
DAV:   1    -0.810359164807E+02    0.24090E-04   -0.31010E-04  2000   0.750E-02    0.314E-03
RMM:   2    -0.810359182070E+02   -0.17264E-05   -0.10256E-05  1131   0.273E-02
 154 F= -.84066927E+02 E0= -.84059272E+02  d E =-.229196E-03
       N       E                     dE             d eps       ncg     rms          rms(c)
DAV:   1    -0.810359300902E+02   -0.13610E-04   -0.72489E-05  2056   0.394E-02    0.183E-03
RMM:   2    -0.810359304341E+02   -0.34383E-06   -0.25684E-06  1068   0.108E-02
 155 F= -.84066926E+02 E0= -.84059276E+02  d E =-.228489E-03
       N       E                     dE             d eps       ncg     rms          rms(c)
DAV:   1    -0.810360977611E+02   -0.16767E-03   -0.50943E-03  2000   0.236E-01    0.146E-02
RMM:   2    -0.810361052294E+02   -0.74683E-05   -0.94468E-05  1389   0.688E-02
 156 F= -.84066996E+02 E0= -.84059351E+02  d E =-.701336E-04
       N       E                     dE             d eps       ncg     rms          rms(c)
DAV:   1    -0.810365397576E+02   -0.44200E-03   -0.45852E-02  2000   0.707E-01    0.455E-02
RMM:   2    -0.810366090542E+02   -0.69297E-04   -0.82828E-04  2577   0.170E-01    0.283E-02
RMM:   3    -0.810366488572E+02   -0.39803E-04   -0.29256E-04  1981   0.688E-02    0.274E-02
RMM:   4    -0.810366247515E+02    0.24106E-04   -0.41506E-05  1466   0.495E-02    0.128E-02
RMM:   5    -0.810366267482E+02   -0.19967E-05   -0.17645E-05  1352   0.244E-02
 157 F= -.84067204E+02 E0= -.84059565E+02  d E =-.278117E-03
       N       E                     dE             d eps       ncg     rms          rms(c)
DAV:   1    -0.810371550029E+02   -0.53025E-03   -0.18164E-01  2000   0.140E+00    0.824E-02
RMM:   2    -0.810374526280E+02   -0.29763E-03   -0.35148E-03  2600   0.358E-01    0.499E-02
RMM:   3    -0.810375769906E+02   -0.12436E-03   -0.10208E-03  2379   0.125E-01    0.367E-02
RMM:   4    -0.810375517383E+02    0.25252E-04   -0.17633E-04  1907   0.698E-02    0.245E-02
RMM:   5    -0.810375486453E+02    0.30930E-05   -0.34510E-05  1493   0.370E-02
 158 F= -.84067501E+02 E0= -.84059873E+02  d E =-.575057E-03
       N       E                     dE             d eps       ncg     rms          rms(c)
DAV:   1    -0.810374722538E+02    0.79485E-04   -0.72765E-01  2000   0.279E+00    0.165E-01
RMM:   2    -0.810386038904E+02   -0.11316E-02   -0.13491E-02  2614   0.679E-01    0.993E-02
RMM:   3    -0.810390662657E+02   -0.46238E-03   -0.37711E-03  2675   0.235E-01    0.755E-02
RMM:   4    -0.810389536860E+02    0.11258E-03   -0.70362E-04  2340   0.124E-01    0.504E-02
RMM:   5    -0.810389466612E+02    0.70248E-05   -0.16246E-04  2002   0.605E-02    0.114E-02
RMM:   6    -0.810389431752E+02    0.34860E-05   -0.30153E-05  1429   0.443E-02
 159 F= -.84067654E+02 E0= -.84060084E+02  d E =-.727993E-03
       N       E                     dE             d eps       ncg     rms          rms(c)
DAV:   1    -0.810391216648E+02   -0.17500E-03   -0.72666E-02  2016   0.865E-01    0.676E-02
RMM:   2    -0.810391815658E+02   -0.59901E-04   -0.14067E-03  2480   0.230E-01    0.449E-02
RMM:   3    -0.810392162378E+02   -0.34672E-04   -0.56377E-04  1870   0.909E-02    0.263E-02
RMM:   4    -0.810392272566E+02   -0.11019E-04   -0.13632E-04  1818   0.660E-02    0.254E-02
RMM:   5    -0.810392144039E+02    0.12853E-04   -0.16747E-05  1332   0.323E-02    0.146E-02
RMM:   6    -0.810392156386E+02   -0.12347E-05   -0.87340E-06  1255   0.270E-02
 160 F= -.84067674E+02 E0= -.84060102E+02  d E =-.195988E-04
       N       E                     dE             d eps       ncg     rms          rms(c)
DAV:   1    -0.810392366072E+02   -0.22203E-04   -0.16819E-02  2000   0.416E-01    0.319E-02
RMM:   2    -0.810392519496E+02   -0.15342E-04   -0.30967E-04  1672   0.107E-01    0.217E-02
RMM:   3    -0.810392572681E+02   -0.53184E-05   -0.11745E-04  1448   0.505E-02    0.119E-02
RMM:   4    -0.810392612850E+02   -0.40169E-05   -0.23671E-05  1345   0.348E-02
 161 F= -.84067840E+02 E0= -.84060248E+02  d E =-.186213E-03
       N       E                     dE             d eps       ncg     rms          rms(c)
DAV:   1    -0.810398269450E+02   -0.56968E-03   -0.33762E-02  2000   0.608E-01    0.355E-02
RMM:   2    -0.810398900190E+02   -0.63074E-04   -0.71468E-04  2388   0.160E-01    0.209E-02
RMM:   3    -0.810399053281E+02   -0.15309E-04   -0.16250E-04  1541   0.502E-02    0.131E-02
RMM:   4    -0.810399106132E+02   -0.52850E-05   -0.32446E-05  1424   0.448E-02
 162 F= -.84068346E+02 E0= -.84060778E+02  d E =-.505675E-03
       N       E                     dE             d eps       ncg     rms          rms(c)
DAV:   1    -0.810408431276E+02   -0.93780E-03   -0.30404E-01  2000   0.182E+00    0.109E-01
RMM:   2    -0.810413275777E+02   -0.48445E-03   -0.57738E-03  2532   0.447E-01    0.658E-02
RMM:   3    -0.810414527442E+02   -0.12517E-03   -0.13563E-03  2354   0.132E-01    0.385E-02
RMM:   4    -0.810415212291E+02   -0.68485E-04   -0.33962E-04  2163   0.875E-02    0.360E-02
RMM:   5    -0.810414596837E+02    0.61545E-04   -0.58402E-05  1644   0.537E-02    0.506E-03
RMM:   6    -0.810414624303E+02   -0.27466E-05   -0.27811E-05  1443   0.283E-02
 163 F= -.84069473E+02 E0= -.84061876E+02  d E =-.163276E-02
