       N       E                     dE             d eps       ncg     rms          rms(c)
DAV:   1     0.433611006982E+03    0.43361E+03   -0.13198E+04  2000   0.843E+02
DAV:   2     0.219419976507E+02   -0.41167E+03   -0.39369E+03  2208   0.246E+02
DAV:   3    -0.778139260087E+02   -0.99756E+02   -0.96399E+02  3760   0.127E+02
DAV:   4    -0.883322171254E+02   -0.10518E+02   -0.10323E+02  3456   0.497E+01
DAV:   5    -0.887315474954E+02   -0.39933E+00   -0.39763E+00  3344   0.119E+01    0.185E+01
RMM:   6    -0.798389113181E+02    0.88926E+01   -0.24828E+01  2428   0.290E+01    0.714E+00
RMM:   7    -0.811240995689E+02   -0.12852E+01   -0.20271E+01  2750   0.124E+01    0.537E+00
RMM:   8    -0.801630235515E+02    0.96108E+00   -0.24304E+00  2345   0.881E+00    0.390E+00
RMM:   9    -0.796895038421E+02    0.47352E+00   -0.20794E+00  2357   0.878E+00    0.265E+00
RMM:  10    -0.796102376037E+02    0.79266E-01   -0.86648E-01  2595   0.421E+00    0.837E-01
RMM:  11    -0.795805584249E+02    0.29679E-01   -0.13111E-01  2310   0.208E+00    0.491E-01
RMM:  12    -0.795814062273E+02   -0.84780E-03   -0.94097E-02  2638   0.990E-01    0.288E-01
RMM:  13    -0.795794906779E+02    0.19155E-02   -0.24880E-02  2706   0.501E-01    0.136E-01
RMM:  14    -0.795790881216E+02    0.40256E-03   -0.90305E-03  2744   0.292E-01    0.986E-02
RMM:  15    -0.795790595136E+02    0.28608E-04   -0.34247E-03  2689   0.191E-01    0.617E-02
RMM:  16    -0.795792180056E+02   -0.15849E-03   -0.14910E-03  2682   0.121E-01    0.372E-02
RMM:  17    -0.795796380898E+02   -0.42008E-03   -0.83889E-04  2565   0.103E-01    0.249E-02
RMM:  18    -0.795802375312E+02   -0.59944E-03   -0.36476E-04  2316   0.811E-02    0.193E-02
RMM:  19    -0.795806436092E+02   -0.40608E-03   -0.13441E-04  1995   0.456E-02    0.118E-02
RMM:  20    -0.795812409854E+02   -0.59738E-03   -0.10077E-04  1844   0.367E-02    0.643E-03
RMM:  21    -0.795815223874E+02   -0.28140E-03   -0.43733E-05  1603   0.277E-02    0.381E-03
RMM:  22    -0.795816627824E+02   -0.14039E-03   -0.22816E-05  1468   0.207E-02    0.239E-03
RMM:  23    -0.795817176393E+02   -0.54857E-04   -0.12987E-05  1382   0.165E-02    0.188E-03
RMM:  24    -0.795817244894E+02   -0.68501E-05   -0.36453E-06  1275   0.137E-02
   1 F= -.82678248E+02 E0= -.82679640E+02  d E =-.826782E+02
       N       E                     dE             d eps       ncg     rms          rms(c)
DAV:   1    -0.796788978668E+02   -0.97180E-01   -0.66819E+00  2400   0.116E+01    0.597E-01
RMM:   2    -0.796980774254E+02   -0.19180E-01   -0.22219E-01  2552   0.302E+00    0.393E-01
RMM:   3    -0.797012693557E+02   -0.31919E-02   -0.47713E-02  2569   0.103E+00    0.336E-01
RMM:   4    -0.796975300608E+02    0.37393E-02   -0.85206E-03  2596   0.486E-01    0.184E-01
RMM:   5    -0.796971177501E+02    0.41231E-03   -0.29060E-03  2658   0.243E-01    0.105E-01
RMM:   6    -0.796970121090E+02    0.10564E-03   -0.12919E-03  2505   0.192E-01    0.341E-02
RMM:   7    -0.796970099392E+02    0.21698E-05   -0.34104E-04  2391   0.857E-02    0.167E-02
RMM:   8    -0.796970086639E+02    0.12753E-05   -0.71986E-05  1811   0.440E-02
   2 F= -.82797320E+02 E0= -.82798128E+02  d E =-.119072E+00
       N       E                     dE             d eps       ncg     rms          rms(c)
DAV:   1    -0.797187141335E+02   -0.21704E-01   -0.65366E+00  2096   0.114E+01    0.599E-01
RMM:   2    -0.797359591385E+02   -0.17245E-01   -0.20680E-01  2532   0.294E+00    0.387E-01
RMM:   3    -0.797395306192E+02   -0.35715E-02   -0.45185E-02  2558   0.101E+00    0.337E-01
RMM:   4    -0.797355596151E+02    0.39710E-02   -0.84075E-03  2583   0.494E-01    0.178E-01
RMM:   5    -0.797351589883E+02    0.40063E-03   -0.28327E-03  2656   0.242E-01    0.100E-01
RMM:   6    -0.797350650996E+02    0.93889E-04   -0.11282E-03  2490   0.186E-01    0.343E-02
RMM:   7    -0.797350661332E+02   -0.10336E-05   -0.34050E-04  2397   0.862E-02    0.160E-02
RMM:   8    -0.797350695432E+02   -0.34100E-05   -0.71575E-05  1774   0.425E-02
   3 F= -.82839520E+02 E0= -.82839889E+02  d E =-.161272E+00
       N       E                     dE             d eps       ncg     rms          rms(c)
DAV:   1    -0.797683817287E+02   -0.33316E-01   -0.12525E-01  2400   0.144E+00    0.143E-01
RMM:   2    -0.797687915279E+02   -0.40980E-03   -0.63461E-03  2523   0.542E-01    0.945E-02
RMM:   3    -0.797689800266E+02   -0.18850E-03   -0.18014E-03  2587   0.195E-01    0.813E-02
RMM:   4    -0.797687819328E+02    0.19809E-03   -0.47110E-04  2461   0.110E-01    0.402E-02
RMM:   5    -0.797687584434E+02    0.23489E-04   -0.11581E-04  1988   0.592E-02    0.231E-02
RMM:   6    -0.797687590512E+02   -0.60777E-06   -0.41245E-05  1615   0.425E-02
   4 F= -.82874323E+02 E0= -.82874570E+02  d E =-.348026E-01
       N       E                     dE             d eps       ncg     rms          rms(c)
DAV:   1    -0.798364358084E+02   -0.67677E-01   -0.11157E+00  2000   0.433E+00    0.426E-01
RMM:   2    -0.798404055553E+02   -0.39697E-02   -0.60407E-02  2576   0.159E+00    0.274E-01
RMM:   3    -0.798421434241E+02   -0.17379E-02   -0.14384E-02  2617   0.556E-01    0.243E-01
RMM:   4    -0.798402745157E+02    0.18689E-02   -0.38009E-03  2632   0.307E-01    0.122E-01
RMM:   5    -0.798400284920E+02    0.24602E-03   -0.10160E-03  2509   0.164E-01    0.684E-02
RMM:   6    -0.798400023940E+02    0.26098E-04   -0.37285E-04  2377   0.105E-01    0.252E-02
RMM:   7    -0.798399936727E+02    0.87212E-05   -0.11505E-04  1908   0.616E-02    0.995E-03
RMM:   8    -0.798399977076E+02   -0.40348E-05   -0.41472E-05  1641   0.299E-02
   5 F= -.82949052E+02 E0= -.82949011E+02  d E =-.109532E+00
       N       E                     dE             d eps       ncg     rms          rms(c)
DAV:   1    -0.798374804073E+02    0.25133E-02   -0.44271E+00  2000   0.875E+00    0.837E-01
RMM:   2    -0.798546689514E+02   -0.17189E-01   -0.25637E-01  2645   0.309E+00    0.507E-01
RMM:   3    -0.798620252063E+02   -0.73563E-02   -0.49561E-02  2645   0.102E+00    0.463E-01
RMM:   4    -0.798552173906E+02    0.68078E-02   -0.15103E-02  2659   0.579E-01    0.247E-01
RMM:   5    -0.798539893824E+02    0.12280E-02   -0.36353E-03  2514   0.323E-01    0.134E-01
RMM:   6    -0.798538496414E+02    0.13974E-03   -0.14264E-03  2520   0.206E-01    0.450E-02
RMM:   7    -0.798538366635E+02    0.12978E-04   -0.48209E-04  2337   0.103E-01    0.193E-02
RMM:   8    -0.798538461381E+02   -0.94746E-05   -0.12988E-04  1901   0.472E-02    0.114E-02
RMM:   9    -0.798538580157E+02   -0.11878E-04   -0.38601E-05  1577   0.282E-02    0.481E-03
RMM:  10    -0.798538651661E+02   -0.71505E-05   -0.83096E-06  1278   0.249E-02
   6 F= -.82970541E+02 E0= -.82970153E+02  d E =-.131021E+00
       N       E                     dE             d eps       ncg     rms          rms(c)
DAV:   1    -0.798664552087E+02   -0.12597E-01   -0.60203E-01  2000   0.316E+00    0.296E-01
RMM:   2    -0.798682082608E+02   -0.17531E-02   -0.27681E-02  2385   0.122E+00    0.207E-01
RMM:   3    -0.798691251964E+02   -0.91694E-03   -0.97489E-03  2648   0.436E-01    0.164E-01
RMM:   4    -0.798684123000E+02    0.71290E-03   -0.23927E-03  2671   0.226E-01    0.915E-02
RMM:   5    -0.798682675479E+02    0.14475E-03   -0.54960E-04  2431   0.116E-01    0.483E-02
RMM:   6    -0.798682485207E+02    0.19027E-04   -0.16525E-04  2125   0.828E-02    0.185E-02
RMM:   7    -0.798682448020E+02    0.37187E-05   -0.70412E-05  1767   0.460E-02
   7 F= -.82982025E+02 E0= -.82981731E+02  d E =-.142505E+00
       N       E                     dE             d eps       ncg     rms          rms(c)
DAV:   1    -0.798794544792E+02   -0.11206E-01   -0.34002E-02  2400   0.817E-01    0.638E-02
RMM:   2    -0.798795775816E+02   -0.12310E-03   -0.17347E-03  2555   0.289E-01    0.413E-02
RMM:   3    -0.798795944418E+02   -0.16860E-04   -0.38653E-04  2332   0.838E-02    0.294E-02
RMM:   4    -0.798795939734E+02    0.46834E-06   -0.98735E-05  1973   0.561E-02
   8 F= -.82993173E+02 E0= -.82992914E+02  d E =-.111483E-01
       N       E                     dE             d eps       ncg     rms          rms(c)
DAV:   1    -0.799064791065E+02   -0.26885E-01   -0.30448E-01  2080   0.245E+00    0.192E-01
RMM:   2    -0.799076703782E+02   -0.11913E-02   -0.16531E-02  2521   0.896E-01    0.130E-01
RMM:   3    -0.799077354575E+02   -0.65079E-04   -0.35274E-03  2560   0.251E-01    0.840E-02
RMM:   4    -0.799079549083E+02   -0.21945E-03   -0.12490E-03  2703   0.158E-01    0.801E-02
RMM:   5    -0.799076803077E+02    0.27460E-03   -0.32884E-04  2376   0.928E-02    0.365E-02
RMM:   6    -0.799076508065E+02    0.29501E-04   -0.67994E-05  1793   0.545E-02    0.236E-02
RMM:   7    -0.799076560152E+02   -0.52087E-05   -0.17260E-04  2140   0.471E-02    0.155E-02
RMM:   8    -0.799076505871E+02    0.54280E-05   -0.19552E-05  1365   0.380E-02
   9 F= -.83020650E+02 E0= -.83020276E+02  d E =-.386254E-01
       N       E                     dE             d eps       ncg     rms          rms(c)
DAV:   1    -0.799316694449E+02   -0.24013E-01   -0.12242E+00  2000   0.487E+00    0.390E-01
RMM:   2    -0.799356439729E+02   -0.39745E-02   -0.60025E-02  2487   0.179E+00    0.256E-01
RMM:   3    -0.799359738567E+02   -0.32988E-03   -0.15884E-02  2558   0.545E-01    0.142E-01
RMM:   4    -0.799360735363E+02   -0.99680E-04   -0.50819E-03  2683   0.316E-01    0.849E-02
RMM:   5    -0.799359335677E+02    0.13997E-03   -0.57606E-04  2314   0.136E-01    0.587E-02
RMM:   6    -0.799359452204E+02   -0.11653E-04   -0.30653E-04  2491   0.782E-02    0.464E-02
RMM:   7    -0.799359101819E+02    0.35038E-04   -0.31866E-04  2511   0.708E-02    0.264E-02
RMM:   8    -0.799358942060E+02    0.15976E-04   -0.45155E-05  1720   0.435E-02    0.152E-02
RMM:   9    -0.799358954993E+02   -0.12933E-05   -0.71389E-05  1727   0.380E-02
  10 F= -.83047842E+02 E0= -.83047343E+02  d E =-.658166E-01
       N       E                     dE             d eps       ncg     rms          rms(c)
DAV:   1    -0.799496291218E+02   -0.13735E-01   -0.31733E-01  2400   0.256E+00    0.135E-01
RMM:   2    -0.799504093711E+02   -0.78025E-03   -0.10344E-02  2570   0.635E-01    0.848E-02
RMM:   3    -0.799505480618E+02   -0.13869E-03   -0.22325E-03  2626   0.214E-01    0.789E-02
RMM:   4    -0.799503119923E+02    0.23607E-03   -0.34728E-04  2270   0.102E-01    0.489E-02
RMM:   5    -0.799502862188E+02    0.25774E-04   -0.25878E-04  2381   0.698E-02    0.246E-02
RMM:   6    -0.799502787786E+02    0.74402E-05   -0.10280E-04  2010   0.613E-02    0.141E-02
RMM:   7    -0.799502756353E+02    0.31433E-05   -0.28967E-05  1496   0.316E-02
  11 F= -.83061885E+02 E0= -.83061449E+02  d E =-.140438E-01
       N       E                     dE             d eps       ncg     rms          rms(c)
DAV:   1    -0.799676749603E+02   -0.17396E-01   -0.28467E+00  2000   0.767E+00    0.404E-01
RMM:   2    -0.799746402386E+02   -0.69653E-02   -0.89347E-02  2531   0.188E+00    0.265E-01
RMM:   3    -0.799756617797E+02   -0.10215E-02   -0.19770E-02  2611   0.643E-01    0.237E-01
RMM:   4    -0.799736003908E+02    0.20614E-02   -0.31661E-03  2475   0.296E-01    0.151E-01
RMM:   5    -0.799733473002E+02    0.25309E-03   -0.24039E-03  2654   0.204E-01    0.771E-02
RMM:   6    -0.799732621064E+02    0.85194E-04   -0.10240E-03  2500   0.165E-01    0.466E-02
RMM:   7    -0.799732059129E+02    0.56193E-04   -0.34004E-04  2448   0.722E-02    0.153E-02
RMM:   8    -0.799732127443E+02   -0.68314E-05   -0.10812E-04  2021   0.526E-02    0.109E-02
RMM:   9    -0.799732154351E+02   -0.26908E-05   -0.16291E-05  1352   0.329E-02
  12 F= -.83083866E+02 E0= -.83083643E+02  d E =-.360240E-01
       N       E                     dE             d eps       ncg     rms          rms(c)
DAV:   1    -0.799740989566E+02   -0.88621E-03   -0.17598E-01  2400   0.191E+00    0.995E-02
RMM:   2    -0.799745143293E+02   -0.41537E-03   -0.53074E-03  2508   0.472E-01    0.629E-02
RMM:   3    -0.799745820019E+02   -0.67673E-04   -0.12432E-03  2582   0.161E-01    0.576E-02
RMM:   4    -0.799744620624E+02    0.11994E-03   -0.21156E-04  2197   0.796E-02    0.353E-02
RMM:   5    -0.799744496830E+02    0.12379E-04   -0.11434E-04  2113   0.549E-02    0.189E-02
RMM:   6    -0.799744500440E+02   -0.36094E-06   -0.75741E-05  1839   0.475E-02
  13 F= -.83084873E+02 E0= -.83084723E+02  d E =-.370318E-01
       N       E                     dE             d eps       ncg     rms          rms(c)
DAV:   1    -0.799803555944E+02   -0.59059E-02   -0.84025E-02  2160   0.134E+00    0.107E-01
RMM:   2    -0.799806852849E+02   -0.32969E-03   -0.44988E-03  2548   0.431E-01    0.737E-02
RMM:   3    -0.799806812993E+02    0.39856E-05   -0.90609E-04  2618   0.148E-01    0.610E-02
RMM:   4    -0.799805732880E+02    0.10801E-03   -0.19092E-04  2215   0.710E-02    0.364E-02
RMM:   5    -0.799805683168E+02    0.49712E-05   -0.94206E-05  2044   0.526E-02
  14 F= -.83090633E+02 E0= -.83090561E+02  d E =-.575935E-02
       N       E                     dE             d eps       ncg     rms          rms(c)
DAV:   1    -0.799857730403E+02   -0.51998E-02   -0.42165E-01  2000   0.300E+00    0.234E-01
RMM:   2    -0.799874022706E+02   -0.16292E-02   -0.21544E-02  2561   0.965E-01    0.163E-01
RMM:   3    -0.799873973026E+02    0.49680E-05   -0.48768E-03  2643   0.339E-01    0.133E-01
RMM:   4    -0.799868599490E+02    0.53735E-03   -0.89142E-04  2520   0.153E-01    0.794E-02
RMM:   5    -0.799868261827E+02    0.33766E-04   -0.42341E-04  2474   0.104E-01    0.425E-02
RMM:   6    -0.799867970949E+02    0.29088E-04   -0.18134E-04  2168   0.828E-02    0.162E-02
RMM:   7    -0.799867948296E+02    0.22653E-05   -0.61626E-05  1758   0.379E-02
  15 F= -.83096081E+02 E0= -.83096236E+02  d E =-.112071E-01
       N       E                     dE             d eps       ncg     rms          rms(c)
DAV:   1    -0.799947846332E+02   -0.79875E-02   -0.26953E-01  2160   0.236E+00    0.125E-01
RMM:   2    -0.799951559531E+02   -0.37132E-03   -0.58910E-03  2237   0.634E-01    0.769E-02
RMM:   3    -0.799954719126E+02   -0.31596E-03   -0.26683E-03  2598   0.241E-01    0.663E-02
RMM:   4    -0.799953715432E+02    0.10037E-03   -0.57920E-04  2523   0.122E-01    0.434E-02
RMM:   5    -0.799953455657E+02    0.25978E-04   -0.87695E-05  1944   0.554E-02    0.265E-02
RMM:   6    -0.799953438690E+02    0.16967E-05   -0.45996E-05  1665   0.459E-02
  16 F= -.83104067E+02 E0= -.83104425E+02  d E =-.798686E-02
       N       E                     dE             d eps       ncg     rms          rms(c)
DAV:   1    -0.800040697170E+02   -0.87242E-02   -0.24162E+00  2000   0.706E+00    0.370E-01
RMM:   2    -0.800075474222E+02   -0.34777E-02   -0.53376E-02  2257   0.187E+00    0.232E-01
RMM:   3    -0.800101846334E+02   -0.26372E-02   -0.22309E-02  2637   0.695E-01    0.198E-01
RMM:   4    -0.800092262255E+02    0.95841E-03   -0.47254E-03  2691   0.321E-01    0.127E-01
RMM:   5    -0.800089918257E+02    0.23440E-03   -0.76468E-04  2491   0.145E-01    0.725E-02
RMM:   6    -0.800089654826E+02    0.26343E-04   -0.37598E-04  2360   0.117E-01    0.232E-02
RMM:   7    -0.800089619180E+02    0.35646E-05   -0.11591E-04  2032   0.636E-02    0.883E-03
RMM:   8    -0.800089631910E+02   -0.12730E-05   -0.33871E-05  1590   0.312E-02
  17 F= -.83116066E+02 E0= -.83116981E+02  d E =-.199854E-01
       N       E                     dE             d eps       ncg     rms          rms(c)
DAV:   1    -0.800159708421E+02   -0.70089E-02   -0.14079E+00  2192   0.523E+00    0.233E-01
RMM:   2    -0.800179415486E+02   -0.19707E-02   -0.26282E-02  2294   0.114E+00    0.145E-01
RMM:   3    -0.800189850352E+02   -0.10435E-02   -0.90516E-03  2488   0.461E-01    0.141E-01
RMM:   4    -0.800182455449E+02    0.73949E-03   -0.21182E-03  2610   0.258E-01    0.586E-02
RMM:   5    -0.800182480299E+02   -0.24850E-05   -0.40352E-04  2493   0.927E-02    0.356E-02
RMM:   6    -0.800182385322E+02    0.94977E-05   -0.11404E-04  2033   0.706E-02    0.149E-02
RMM:   7    -0.800182421992E+02   -0.36669E-05   -0.46513E-05  1629   0.397E-02
  18 F= -.83124790E+02 E0= -.83126114E+02  d E =-.872447E-02
       N       E                     dE             d eps       ncg     rms          rms(c)
DAV:   1    -0.800183156277E+02   -0.77096E-04   -0.57070E-01  2240   0.335E+00    0.148E-01
RMM:   2    -0.800191539036E+02   -0.83828E-03   -0.10957E-02  2299   0.737E-01    0.913E-02
RMM:   3    -0.800195746437E+02   -0.42074E-03   -0.36211E-03  2474   0.292E-01    0.880E-02
RMM:   4    -0.800192975269E+02    0.27712E-03   -0.83542E-04  2534   0.166E-01    0.386E-02
RMM:   5    -0.800192946595E+02    0.28673E-05   -0.16687E-04  2198   0.671E-02    0.226E-02
RMM:   6    -0.800192904248E+02    0.42347E-05   -0.45926E-05  1654   0.485E-02
  19 F= -.83125493E+02 E0= -.83127073E+02  d E =-.942695E-02
       N       E                     dE             d eps       ncg     rms          rms(c)
DAV:   1    -0.800239561977E+02   -0.46615E-02   -0.48997E-01  2000   0.313E+00    0.173E-01
RMM:   2    -0.800246035646E+02   -0.64737E-03   -0.95149E-03  2286   0.806E-01    0.104E-01
RMM:   3    -0.800252624561E+02   -0.65889E-03   -0.43897E-03  2552   0.322E-01    0.109E-01
RMM:   4    -0.800248149317E+02    0.44752E-03   -0.90979E-04  2517   0.177E-01    0.442E-02
RMM:   5    -0.800248139176E+02    0.10141E-05   -0.20043E-04  2250   0.682E-02    0.254E-02
RMM:   6    -0.800248111340E+02    0.27836E-05   -0.64606E-05  1836   0.505E-02
  20 F= -.83130638E+02 E0= -.83132520E+02  d E =-.514484E-02
       N       E                     dE             d eps       ncg     rms          rms(c)
DAV:   1    -0.800263463916E+02   -0.15325E-02   -0.10358E+00  2000   0.457E+00    0.250E-01
RMM:   2    -0.800277154133E+02   -0.13690E-02   -0.20254E-02  2288   0.117E+00    0.149E-01
RMM:   3    -0.800290750739E+02   -0.13597E-02   -0.91464E-03  2568   0.464E-01    0.156E-01
RMM:   4    -0.800281680803E+02    0.90699E-03   -0.19098E-03  2569   0.249E-01    0.660E-02
RMM:   5    -0.800281603203E+02    0.77600E-05   -0.41538E-04  2419   0.945E-02    0.381E-02
RMM:   6    -0.800281548157E+02    0.55046E-05   -0.14911E-04  2161   0.725E-02    0.136E-02
RMM:   7    -0.800281552299E+02   -0.41419E-06   -0.40485E-05  1599   0.379E-02
  21 F= -.83133461E+02 E0= -.83135736E+02  d E =-.796852E-02
       N       E                     dE             d eps       ncg     rms          rms(c)
DAV:   1    -0.800348880282E+02   -0.67332E-02   -0.13519E-01  2320   0.165E+00    0.139E-01
RMM:   2    -0.800353361256E+02   -0.44810E-03   -0.66527E-03  2543   0.511E-01    0.917E-02
RMM:   3    -0.800355760151E+02   -0.23989E-03   -0.19515E-03  2691   0.196E-01    0.866E-02
RMM:   4    -0.800353461221E+02    0.22989E-03   -0.43204E-04  2445   0.107E-01    0.447E-02
RMM:   5    -0.800353392233E+02    0.68988E-05   -0.12555E-04  2063   0.646E-02    0.251E-02
RMM:   6    -0.800353322971E+02    0.69262E-05   -0.40515E-05  1594   0.474E-02
  22 F= -.83140307E+02 E0= -.83142672E+02  d E =-.684519E-02
       N       E                     dE             d eps       ncg     rms          rms(c)
DAV:   1    -0.800362972075E+02   -0.95798E-03   -0.41044E-02  2416   0.907E-01    0.788E-02
RMM:   2    -0.800364337269E+02   -0.13652E-03   -0.21161E-03  2554   0.283E-01    0.519E-02
RMM:   3    -0.800364967845E+02   -0.63058E-04   -0.54797E-04  2562   0.108E-01    0.483E-02
RMM:   4    -0.800364295682E+02    0.67216E-04   -0.11178E-04  2022   0.605E-02    0.264E-02
RMM:   5    -0.800364266558E+02    0.29124E-05   -0.35910E-05  1554   0.453E-02
  23 F= -.83141221E+02 E0= -.83143658E+02  d E =-.775974E-02
       N       E                     dE             d eps       ncg     rms          rms(c)
DAV:   1    -0.800421434318E+02   -0.57139E-02   -0.37358E-01  2000   0.269E+00    0.136E-01
RMM:   2    -0.800425898536E+02   -0.44642E-03   -0.72999E-03  2227   0.661E-01    0.856E-02
RMM:   3    -0.800429725922E+02   -0.38274E-03   -0.31088E-03  2516   0.269E-01    0.756E-02
RMM:   4    -0.800427565962E+02    0.21600E-03   -0.61543E-04  2595   0.137E-01    0.386E-02
RMM:   5    -0.800427418249E+02    0.14771E-04   -0.10658E-04  2063   0.598E-02    0.240E-02
RMM:   6    -0.800427395084E+02    0.23165E-05   -0.35414E-05  1557   0.454E-02
  24 F= -.83147137E+02 E0= -.83149673E+02  d E =-.591626E-02
       N       E                     dE             d eps       ncg     rms          rms(c)
DAV:   1    -0.800452114033E+02   -0.24696E-02   -0.24982E+00  2000   0.696E+00    0.350E-01
RMM:   2    -0.800482329576E+02   -0.30216E-02   -0.48074E-02  2221   0.166E+00    0.226E-01
RMM:   3    -0.800505145857E+02   -0.22816E-02   -0.19902E-02  2545   0.686E-01    0.193E-01
RMM:   4    -0.800491867930E+02    0.13278E-02   -0.40250E-03  2663   0.334E-01    0.997E-02
RMM:   5    -0.800490679875E+02    0.11881E-03   -0.77132E-04  2466   0.151E-01    0.609E-02
RMM:   6    -0.800490448633E+02    0.23124E-04   -0.23629E-04  2286   0.102E-01    0.244E-02
RMM:   7    -0.800490510761E+02   -0.62128E-05   -0.11037E-04  1979   0.455E-02    0.827E-03
RMM:   8    -0.800490521027E+02   -0.10266E-05   -0.30509E-05  1546   0.376E-02
  25 F= -.83152452E+02 E0= -.83155294E+02  d E =-.112309E-01
       N       E                     dE             d eps       ncg     rms          rms(c)
DAV:   1    -0.800518301898E+02   -0.27791E-02   -0.78108E-02  2384   0.127E+00    0.605E-02
RMM:   2    -0.800519277808E+02   -0.97591E-04   -0.15014E-03  2238   0.307E-01    0.342E-02
RMM:   3    -0.800519822166E+02   -0.54436E-04   -0.67348E-04  2318   0.118E-01    0.209E-02
RMM:   4    -0.800519853216E+02   -0.31050E-05   -0.11014E-04  2023   0.701E-02    0.164E-02
RMM:   5    -0.800519867685E+02   -0.14470E-05   -0.17812E-05  1327   0.301E-02
  26 F= -.83155228E+02 E0= -.83158141E+02  d E =-.277622E-02
       N       E                     dE             d eps       ncg     rms          rms(c)
DAV:   1    -0.800586995255E+02   -0.67142E-02   -0.70373E-01  2016   0.380E+00    0.185E-01
RMM:   2    -0.800595026347E+02   -0.80311E-03   -0.13288E-02  2257   0.894E-01    0.106E-01
RMM:   3    -0.800599896379E+02   -0.48700E-03   -0.60722E-03  2512   0.351E-01    0.694E-02
RMM:   4    -0.800600274452E+02   -0.37807E-04   -0.10059E-03  2617   0.173E-01    0.616E-02
RMM:   5    -0.800599687591E+02    0.58686E-04   -0.19305E-04  2261   0.753E-02    0.414E-02
RMM:   6    -0.800599500864E+02    0.18673E-04   -0.13937E-04  2129   0.683E-02    0.182E-02
RMM:   7    -0.800599428190E+02    0.72674E-05   -0.32455E-05  1567   0.387E-02
  27 F= -.83162721E+02 E0= -.83165799E+02  d E =-.102691E-01
       N       E                     dE             d eps       ncg     rms          rms(c)
DAV:   1    -0.800670488114E+02   -0.70987E-02   -0.28169E+00  2000   0.760E+00    0.369E-01
RMM:   2    -0.800706440136E+02   -0.35952E-02   -0.55721E-02  2304   0.176E+00    0.207E-01
RMM:   3    -0.800722722037E+02   -0.16282E-02   -0.21965E-02  2534   0.644E-01    0.133E-01
RMM:   4    -0.800723872154E+02   -0.11501E-03   -0.35292E-03  2640   0.315E-01    0.107E-01
RMM:   5    -0.800724040157E+02   -0.16800E-04   -0.79831E-04  2561   0.136E-01    0.795E-02
RMM:   6    -0.800722362713E+02    0.16774E-03   -0.41897E-04  2418   0.120E-01    0.339E-02
RMM:   7    -0.800722090614E+02    0.27210E-04   -0.12664E-04  2081   0.624E-02    0.117E-02
RMM:   8    -0.800722145323E+02   -0.54709E-05   -0.72773E-05  1899   0.466E-02
  28 F= -.83174120E+02 E0= -.83177532E+02  d E =-.216678E-01
       N       E                     dE             d eps       ncg     rms          rms(c)
DAV:   1    -0.800585620750E+02    0.13647E-01   -0.11250E+01  2000   0.152E+01    0.777E-01
RMM:   2    -0.800743736272E+02   -0.15812E-01   -0.24093E-01  2336   0.367E+00    0.407E-01
RMM:   3    -0.800831191960E+02   -0.87456E-02   -0.10722E-01  2543   0.137E+00    0.296E-01
RMM:   4    -0.800838813017E+02   -0.76211E-03   -0.15947E-02  2644   0.670E-01    0.270E-01
RMM:   5    -0.800829314525E+02    0.94985E-03   -0.32843E-03  2612   0.271E-01    0.187E-01
RMM:   6    -0.800826923828E+02    0.23907E-03   -0.35100E-03  2493   0.292E-01    0.959E-02
RMM:   7    -0.800824316249E+02    0.26076E-03   -0.77583E-04  2307   0.152E-01    0.371E-02
RMM:   8    -0.800824654197E+02   -0.33795E-04   -0.75422E-04  2657   0.105E-01    0.278E-02
RMM:   9    -0.800824540444E+02    0.11375E-04   -0.86477E-05  1977   0.455E-02    0.168E-02
RMM:  10    -0.800824523741E+02    0.16703E-05   -0.51958E-05  1684   0.315E-02
  29 F= -.83182816E+02 E0= -.83186877E+02  d E =-.303640E-01
       N       E                     dE             d eps       ncg     rms          rms(c)
DAV:   1    -0.800927667884E+02   -0.10313E-01   -0.57909E-01  2256   0.342E+00    0.236E-01
RMM:   2    -0.800939127086E+02   -0.11459E-02   -0.17513E-02  2465   0.944E-01    0.145E-01
RMM:   3    -0.800947038189E+02   -0.79111E-03   -0.58185E-03  2672   0.328E-01    0.130E-01
RMM:   4    -0.800942405073E+02    0.46331E-03   -0.14115E-03  2621   0.186E-01    0.732E-02
RMM:   5    -0.800941916703E+02    0.48837E-04   -0.30067E-04  2361   0.841E-02    0.286E-02
RMM:   6    -0.800941885380E+02    0.31323E-05   -0.92318E-05  1901   0.642E-02
  30 F= -.83193859E+02 E0= -.83198086E+02  d E =-.110433E-01
       N       E                     dE             d eps       ncg     rms          rms(c)
DAV:   1    -0.800963611144E+02   -0.21694E-02   -0.38111E-01  2176   0.277E+00    0.190E-01
RMM:   2    -0.800971340346E+02   -0.77292E-03   -0.11413E-02  2446   0.774E-01    0.118E-01
RMM:   3    -0.800976179058E+02   -0.48387E-03   -0.38404E-03  2686   0.268E-01    0.102E-01
RMM:   4    -0.800973785747E+02    0.23933E-03   -0.92983E-04  2612   0.146E-01    0.608E-02
RMM:   5    -0.800973359888E+02    0.42586E-04   -0.21041E-04  2280   0.763E-02    0.254E-02
RMM:   6    -0.800973300409E+02    0.59479E-05   -0.61937E-05  1738   0.557E-02
  31 F= -.83196454E+02 E0= -.83200818E+02  d E =-.136378E-01
       N       E                     dE             d eps       ncg     rms          rms(c)
DAV:   1    -0.801115028256E+02   -0.14167E-01   -0.13890E+00  2000   0.520E+00    0.268E-01
RMM:   2    -0.801131669426E+02   -0.16641E-02   -0.24220E-02  2217   0.126E+00    0.151E-01
RMM:   3    -0.801147633311E+02   -0.15964E-02   -0.11022E-02  2493   0.519E-01    0.146E-01
RMM:   4    -0.801139810868E+02    0.78224E-03   -0.25605E-03  2665   0.285E-01    0.610E-02
RMM:   5    -0.801139663928E+02    0.14694E-04   -0.35954E-04  2467   0.891E-02    0.342E-02
RMM:   6    -0.801139746155E+02   -0.82227E-05   -0.10759E-04  2027   0.582E-02    0.113E-02
RMM:   7    -0.801139750521E+02   -0.43660E-06   -0.30672E-05  1542   0.369E-02
  32 F= -.83211887E+02 E0= -.83216462E+02  d E =-.154330E-01
       N       E                     dE             d eps       ncg     rms          rms(c)
DAV:   1    -0.801336550762E+02   -0.19680E-01   -0.12435E+01  2000   0.156E+01    0.875E-01
RMM:   2    -0.801517046515E+02   -0.18050E-01   -0.24813E-01  2252   0.393E+00    0.464E-01
RMM:   3    -0.801653429260E+02   -0.13638E-01   -0.10581E-01  2561   0.163E+00    0.433E-01
RMM:   4    -0.801597570201E+02    0.55859E-02   -0.24098E-02  2685   0.818E-01    0.234E-01
RMM:   5    -0.801591845647E+02    0.57246E-03   -0.37061E-03  2599   0.288E-01    0.120E-01
RMM:   6    -0.801592351714E+02   -0.50607E-04   -0.12764E-03  2603   0.184E-01    0.441E-02
RMM:   7    -0.801592160516E+02    0.19120E-04   -0.37807E-04  2337   0.993E-02    0.182E-02
RMM:   8    -0.801592242579E+02   -0.82062E-05   -0.13126E-04  2047   0.517E-02    0.977E-03
RMM:   9    -0.801592273583E+02   -0.31005E-05   -0.28206E-05  1538   0.311E-02
  33 F= -.83253603E+02 E0= -.83258615E+02  d E =-.571496E-01
       N       E                     dE             d eps       ncg     rms          rms(c)
DAV:   1    -0.800849372979E+02    0.74287E-01   -0.48921E+01  2000   0.311E+01    0.210E+00
RMM:   2    -0.802012208213E+02   -0.11628E+00   -0.14399E+00  2523   0.810E+00    0.972E-01
RMM:   3    -0.802420548514E+02   -0.40834E-01   -0.37552E-01  2630   0.284E+00    0.833E-01
RMM:   4    -0.802276713340E+02    0.14384E-01   -0.80199E-02  2699   0.141E+00    0.575E-01
RMM:   5    -0.802237004495E+02    0.39709E-02   -0.20430E-02  2598   0.681E-01    0.268E-01
RMM:   6    -0.802233592146E+02    0.34123E-03   -0.56036E-03  2527   0.418E-01    0.999E-02
RMM:   7    -0.802233537449E+02    0.54698E-05   -0.24266E-03  2647   0.215E-01    0.544E-02
RMM:   8    -0.802233480383E+02    0.57066E-05   -0.57465E-04  2559   0.105E-01    0.293E-02
RMM:   9    -0.802233493536E+02   -0.13153E-05   -0.13144E-04  2067   0.473E-02    0.165E-02
RMM:  10    -0.802233610582E+02   -0.11705E-04   -0.95953E-05  2008   0.416E-02    0.878E-03
RMM:  11    -0.802233656060E+02   -0.45477E-05   -0.16223E-05  1359   0.294E-02
  34 F= -.83311128E+02 E0= -.83315910E+02  d E =-.114674E+00
       N       E                     dE             d eps       ncg     rms          rms(c)
DAV:   1    -0.790482131360E+02    0.11751E+01   -0.18652E+02  2088   0.622E+01    0.717E+00
RMM:   2    -0.799016529994E+02   -0.85344E+00   -0.97488E+00  2719   0.159E+01    0.383E+00
RMM:   3    -0.798642290427E+02    0.37424E-01   -0.72116E-01  2723   0.389E+00    0.182E+00
RMM:   4    -0.799315680645E+02   -0.67339E-01   -0.27283E-01  2661   0.250E+00    0.123E+00
RMM:   5    -0.798507981705E+02    0.80770E-01   -0.71976E-02  2500   0.146E+00    0.484E-01
RMM:   6    -0.798509580858E+02   -0.15992E-03   -0.47787E-02  2650   0.963E-01    0.308E-01
RMM:   7    -0.798492443621E+02    0.17137E-02   -0.10056E-02  2508   0.540E-01    0.150E-01
RMM:   8    -0.798489690127E+02    0.27535E-03   -0.36458E-03  2688   0.227E-01    0.693E-02
RMM:   9    -0.798490074950E+02   -0.38482E-04   -0.11469E-03  2659   0.117E-01    0.285E-02
RMM:  10    -0.798490513953E+02   -0.43900E-04   -0.24684E-04  2314   0.623E-02    0.170E-02
RMM:  11    -0.798490593919E+02   -0.79966E-05   -0.49318E-05  1657   0.328E-02
  35 F= -.82920315E+02 E0= -.82923104E+02  d E =0.276139E+00
       N       E                     dE             d eps       ncg     rms          rms(c)
DAV:   1    -0.795793658436E+02    0.26969E+00   -0.18132E+02  2048   0.599E+01    0.555E+00
RMM:   2    -0.803539932732E+02   -0.77463E+00   -0.95812E+00  2583   0.189E+01    0.444E+00
RMM:   3    -0.804117426775E+02   -0.57749E-01   -0.15567E+00  2662   0.653E+00    0.336E+00
RMM:   4    -0.802899899317E+02    0.12175E+00   -0.39576E-01  2604   0.325E+00    0.216E+00
RMM:   5    -0.802431380893E+02    0.46852E-01   -0.20674E-01  2461   0.254E+00    0.831E-01
RMM:   6    -0.802257532900E+02    0.17385E-01   -0.47721E-02  2326   0.152E+00    0.248E-01
RMM:   7    -0.802258926073E+02   -0.13932E-03   -0.25888E-02  2736   0.585E-01    0.980E-02
RMM:   8    -0.802259644163E+02   -0.71809E-04   -0.53613E-03  2784   0.248E-01    0.619E-02
RMM:   9    -0.802259543906E+02    0.10026E-04   -0.12782E-03  2696   0.111E-01    0.348E-02
RMM:  10    -0.802259899972E+02   -0.35607E-04   -0.54951E-04  2490   0.738E-02    0.107E-02
RMM:  11    -0.802259999199E+02   -0.99227E-05   -0.11308E-04  1994   0.548E-02    0.601E-03
RMM:  12    -0.802260089002E+02   -0.89802E-05   -0.33021E-05  1484   0.252E-02
  36 F= -.83313229E+02 E0= -.83317927E+02  d E =-.116776E+00
       N       E                     dE             d eps       ncg     rms          rms(c)
DAV:   1    -0.802397777376E+02   -0.13778E-01   -0.28053E+00  2304   0.745E+00    0.483E-01
RMM:   2    -0.802443280569E+02   -0.45503E-02   -0.64324E-02  2384   0.180E+00    0.248E-01
RMM:   3    -0.802463642226E+02   -0.20362E-02   -0.24049E-02  2493   0.700E-01    0.148E-01
RMM:   4    -0.802462096060E+02    0.15462E-03   -0.44845E-03  2666   0.379E-01    0.125E-01
RMM:   5    -0.802459067015E+02    0.30290E-03   -0.69603E-04  2497   0.146E-01    0.604E-02
RMM:   6    -0.802458869520E+02    0.19750E-04   -0.25294E-04  2257   0.106E-01    0.261E-02
RMM:   7    -0.802458811366E+02    0.58154E-05   -0.81868E-05  1866   0.551E-02
  37 F= -.83332148E+02 E0= -.83336628E+02  d E =-.189190E-01
       N       E                     dE             d eps       ncg     rms          rms(c)
DAV:   1    -0.802387302840E+02    0.71567E-02   -0.62579E+00  2000   0.112E+01    0.807E-01
RMM:   2    -0.802504008322E+02   -0.11671E-01   -0.15765E-01  2423   0.271E+00    0.400E-01
RMM:   3    -0.802556604334E+02   -0.52596E-02   -0.54680E-02  2549   0.105E+00    0.256E-01
RMM:   4    -0.802543548774E+02    0.13056E-02   -0.97204E-03  2647   0.547E-01    0.199E-01
RMM:   5    -0.802537667242E+02    0.58815E-03   -0.20574E-03  2568   0.238E-01    0.899E-02
RMM:   6    -0.802537000324E+02    0.66692E-04   -0.60081E-04  2373   0.162E-01    0.380E-02
RMM:   7    -0.802536865754E+02    0.13457E-04   -0.22998E-04  2292   0.803E-02    0.160E-02
RMM:   8    -0.802536932081E+02   -0.66328E-05   -0.63925E-05  1807   0.340E-02
  38 F= -.83338497E+02 E0= -.83342621E+02  d E =-.252672E-01
       N       E                     dE             d eps       ncg     rms          rms(c)
DAV:   1    -0.802532480011E+02    0.43857E-03   -0.49480E-01  2288   0.315E+00    0.208E-01
RMM:   2    -0.802540752861E+02   -0.82729E-03   -0.11771E-02  2329   0.796E-01    0.131E-01
RMM:   3    -0.802546574601E+02   -0.58217E-03   -0.46139E-03  2504   0.328E-01    0.865E-02
RMM:   4    -0.802544007719E+02    0.25669E-03   -0.97193E-04  2583   0.183E-01    0.510E-02
RMM:   5    -0.802543453454E+02    0.55427E-04   -0.16663E-04  2175   0.731E-02    0.263E-02
RMM:   6    -0.802543347091E+02    0.10636E-04   -0.38340E-05  1624   0.520E-02    0.973E-03
RMM:   7    -0.802543361915E+02   -0.14824E-05   -0.17569E-05  1392   0.276E-02
  39 F= -.83339555E+02 E0= -.83343783E+02  d E =-.263258E-01
       N       E                     dE             d eps       ncg     rms          rms(c)
DAV:   1    -0.802582763343E+02   -0.39416E-02   -0.23404E-02  2400   0.717E-01    0.442E-02
RMM:   2    -0.802583622355E+02   -0.85901E-04   -0.11983E-03  2570   0.221E-01    0.301E-02
RMM:   3    -0.802583715838E+02   -0.93483E-05   -0.17947E-04  2088   0.652E-02    0.237E-02
RMM:   4    -0.802583653406E+02    0.62432E-05   -0.33830E-05  1493   0.481E-02
  40 F= -.83343819E+02 E0= -.83348047E+02  d E =-.426347E-02
       N       E                     dE             d eps       ncg     rms          rms(c)
DAV:   1    -0.802666317853E+02   -0.82602E-02   -0.20828E-01  2144   0.214E+00    0.133E-01
RMM:   2    -0.802673787428E+02   -0.74696E-03   -0.10397E-02  2605   0.647E-01    0.902E-02
RMM:   3    -0.802674784456E+02   -0.99703E-04   -0.16835E-03  2673   0.190E-01    0.701E-02
RMM:   4    -0.802674203030E+02    0.58143E-04   -0.35720E-04  2450   0.924E-02    0.584E-02
RMM:   5    -0.802673667365E+02    0.53567E-04   -0.77384E-05  1949   0.555E-02    0.206E-02
RMM:   6    -0.802673675889E+02   -0.85241E-06   -0.52705E-05  1647   0.458E-02
  41 F= -.83353526E+02 E0= -.83357766E+02  d E =-.139704E-01
       N       E                     dE             d eps       ncg     rms          rms(c)
DAV:   1    -0.802690355421E+02   -0.16688E-02   -0.83137E-01  2000   0.428E+00    0.259E-01
RMM:   2    -0.802721845766E+02   -0.31490E-02   -0.42302E-02  2579   0.130E+00    0.175E-01
RMM:   3    -0.802726032617E+02   -0.41869E-03   -0.67321E-03  2694   0.384E-01    0.137E-01
RMM:   4    -0.802723379415E+02    0.26532E-03   -0.13889E-03  2713   0.176E-01    0.114E-01
RMM:   5    -0.802721509820E+02    0.18696E-03   -0.33765E-04  2474   0.968E-02    0.461E-02
RMM:   6    -0.802721482203E+02    0.27617E-05   -0.17304E-04  2252   0.816E-02    0.173E-02
RMM:   7    -0.802721419738E+02    0.62465E-05   -0.44516E-05  1598   0.403E-02
  42 F= -.83359717E+02 E0= -.83363982E+02  d E =-.201618E-01
       N       E                     dE             d eps       ncg     rms          rms(c)
DAV:   1    -0.802750376376E+02   -0.28894E-02   -0.17344E-02  2528   0.594E-01    0.379E-02
RMM:   2    -0.802751141306E+02   -0.76493E-04   -0.77154E-04  2576   0.186E-01    0.262E-02
RMM:   3    -0.802751095158E+02    0.46149E-05   -0.18712E-04  2078   0.675E-02    0.180E-02
RMM:   4    -0.802750994283E+02    0.10087E-04   -0.28820E-05  1417   0.402E-02    0.118E-02
RMM:   5    -0.802750986839E+02    0.74442E-06   -0.11796E-05  1269   0.252E-02
  43 F= -.83362866E+02 E0= -.83367122E+02  d E =-.314881E-02
       N       E                     dE             d eps       ncg     rms          rms(c)
DAV:   1    -0.802826780804E+02   -0.75787E-02   -0.15502E-01  2096   0.177E+00    0.112E-01
RMM:   2    -0.802833317375E+02   -0.65366E-03   -0.66722E-03  2611   0.535E-01    0.778E-02
RMM:   3    -0.802832661331E+02    0.65604E-04   -0.15076E-03  2618   0.186E-01    0.542E-02
RMM:   4    -0.802831614855E+02    0.10465E-03   -0.21313E-04  2166   0.780E-02    0.335E-02
RMM:   5    -0.802831544600E+02    0.70254E-05   -0.12012E-04  2158   0.598E-02    0.148E-02
RMM:   6    -0.802831521611E+02    0.22990E-05   -0.42761E-05  1583   0.445E-02
  44 F= -.83371501E+02 E0= -.83375740E+02  d E =-.117843E-01
       N       E                     dE             d eps       ncg     rms          rms(c)
DAV:   1    -0.802937527574E+02   -0.10598E-01   -0.62218E-01  2000   0.355E+00    0.220E-01
RMM:   2    -0.802963824469E+02   -0.26297E-02   -0.26444E-02  2614   0.105E+00    0.155E-01
RMM:   3    -0.802960443324E+02    0.33811E-03   -0.54390E-03  2617   0.359E-01    0.107E-01
RMM:   4    -0.802956530088E+02    0.39132E-03   -0.82935E-04  2479   0.153E-01    0.656E-02
RMM:   5    -0.802956258330E+02    0.27176E-04   -0.45513E-04  2493   0.102E-01    0.318E-02
RMM:   6    -0.802956100063E+02    0.15827E-04   -0.15738E-04  2179   0.820E-02    0.123E-02
RMM:   7    -0.802956109251E+02   -0.91882E-06   -0.54574E-05  1729   0.329E-02
  45 F= -.83385149E+02 E0= -.83389362E+02  d E =-.254320E-01
       N       E                     dE             d eps       ncg     rms          rms(c)
DAV:   1    -0.802988847244E+02   -0.32747E-02   -0.24942E+00  2000   0.711E+00    0.428E-01
RMM:   2    -0.803088131182E+02   -0.99284E-02   -0.98770E-02  2601   0.207E+00    0.304E-01
RMM:   3    -0.803075869742E+02    0.12261E-02   -0.23183E-02  2594   0.735E-01    0.207E-01
RMM:   4    -0.803061688252E+02    0.14181E-02   -0.33360E-03  2529   0.307E-01    0.126E-01
RMM:   5    -0.803060614387E+02    0.10739E-03   -0.16643E-03  2631   0.194E-01    0.627E-02
RMM:   6    -0.803059932171E+02    0.68222E-04   -0.62066E-04  2518   0.137E-01    0.244E-02
RMM:   7    -0.803059978633E+02   -0.46463E-05   -0.19053E-04  2209   0.495E-02    0.132E-02
RMM:   8    -0.803060065743E+02   -0.87109E-05   -0.34945E-05  1576   0.336E-02
  46 F= -.83398026E+02 E0= -.83402198E+02  d E =-.383094E-01
       N       E                     dE             d eps       ncg     rms          rms(c)
DAV:   1    -0.803056844700E+02    0.31339E-03   -0.66757E-02  2560   0.116E+00    0.706E-02
RMM:   2    -0.803059684607E+02   -0.28399E-03   -0.26740E-03  2571   0.346E-01    0.511E-02
RMM:   3    -0.803059230345E+02    0.45426E-04   -0.66541E-04  2507   0.127E-01    0.334E-02
RMM:   4    -0.803058923750E+02    0.30659E-04   -0.93061E-05  1817   0.554E-02    0.212E-02
RMM:   5    -0.803058910481E+02    0.13269E-05   -0.37334E-05  1583   0.408E-02
  47 F= -.83398329E+02 E0= -.83402494E+02  d E =-.386124E-01
       N       E                     dE             d eps       ncg     rms          rms(c)
DAV:   1    -0.803106328669E+02   -0.47405E-02   -0.51780E-02  2240   0.105E+00    0.857E-02
RMM:   2    -0.803107428330E+02   -0.10997E-03   -0.31301E-03  2643   0.318E-01    0.439E-02
RMM:   3    -0.803107363802E+02    0.64529E-05   -0.31224E-04  2382   0.807E-02    0.319E-02
RMM:   4    -0.803107426742E+02   -0.62941E-05   -0.87042E-05  1920   0.629E-02
  48 F= -.83403067E+02 E0= -.83407188E+02  d E =-.473762E-02
       N       E                     dE             d eps       ncg     rms          rms(c)
DAV:   1    -0.803137501840E+02   -0.30138E-02   -0.16265E-01  2000   0.186E+00    0.150E-01
RMM:   2    -0.803141610407E+02   -0.41086E-03   -0.97486E-03  2619   0.565E-01    0.833E-02
RMM:   3    -0.803141316092E+02    0.29432E-04   -0.10219E-03  2643   0.141E-01    0.589E-02
RMM:   4    -0.803141558568E+02   -0.24248E-04   -0.30739E-04  2422   0.884E-02    0.511E-02
RMM:   5    -0.803140746891E+02    0.81168E-04   -0.62319E-05  1815   0.520E-02    0.176E-02
RMM:   6    -0.803140775335E+02   -0.28443E-05   -0.31774E-05  1489   0.316E-02
  49 F= -.83406201E+02 E0= -.83410217E+02  d E =-.787158E-02
       N       E                     dE             d eps       ncg     rms          rms(c)
DAV:   1    -0.803177369502E+02   -0.36623E-02   -0.62195E-02  2000   0.111E+00    0.104E-01
RMM:   2    -0.803180086944E+02   -0.27174E-03   -0.34541E-03  2655   0.343E-01    0.606E-02
RMM:   3    -0.803180631285E+02   -0.54434E-04   -0.55118E-04  2507   0.108E-01    0.556E-02
RMM:   4    -0.803179424060E+02    0.12072E-03   -0.10786E-04  1995   0.678E-02    0.263E-02
RMM:   5    -0.803179395571E+02    0.28489E-05   -0.83069E-05  1982   0.465E-02
  50 F= -.83410171E+02 E0= -.83414123E+02  d E =-.396999E-02
       N       E                     dE             d eps       ncg     rms          rms(c)
DAV:   1    -0.803206178236E+02   -0.26754E-02   -0.55404E-01  2000   0.333E+00    0.335E-01
RMM:   2    -0.803231437669E+02   -0.25259E-02   -0.31643E-02  2642   0.103E+00    0.182E-01
RMM:   3    -0.803238478074E+02   -0.70404E-03   -0.55211E-03  2621   0.343E-01    0.176E-01
RMM:   4    -0.803225123970E+02    0.13354E-02   -0.11217E-03  2482   0.201E-01    0.779E-02
RMM:   5    -0.803224958178E+02    0.16579E-04   -0.80706E-04  2673   0.122E-01    0.328E-02
RMM:   6    -0.803224574252E+02    0.38393E-04   -0.12816E-04  2083   0.736E-02    0.141E-02
RMM:   7    -0.803224578827E+02   -0.45754E-06   -0.78643E-05  1906   0.356E-02
  51 F= -.83415032E+02 E0= -.83418787E+02  d E =-.883123E-02
       N       E                     dE             d eps       ncg     rms          rms(c)
DAV:   1    -0.803233271091E+02   -0.86968E-03   -0.41073E-02  2496   0.920E-01    0.428E-02
RMM:   2    -0.803234325651E+02   -0.10546E-03   -0.13300E-03  2351   0.264E-01    0.270E-02
RMM:   3    -0.803234754540E+02   -0.42889E-04   -0.42591E-04  2113   0.946E-02    0.212E-02
RMM:   4    -0.803234671942E+02    0.82598E-05   -0.73571E-05  1773   0.604E-02
  52 F= -.83416482E+02 E0= -.83420205E+02  d E =-.144996E-02
       N       E                     dE             d eps       ncg     rms          rms(c)
DAV:   1    -0.803232842637E+02    0.19119E-03   -0.36896E-01  2000   0.276E+00    0.129E-01
RMM:   2    -0.803241644826E+02   -0.88022E-03   -0.11459E-02  2281   0.802E-01    0.874E-02
RMM:   3    -0.803245105478E+02   -0.34607E-03   -0.41223E-03  2433   0.284E-01    0.598E-02
RMM:   4    -0.803245490524E+02   -0.38505E-04   -0.76686E-04  2530   0.160E-01    0.580E-02
RMM:   5    -0.803244647899E+02    0.84263E-04   -0.15461E-04  2151   0.692E-02    0.286E-02
RMM:   6    -0.803244600116E+02    0.47783E-05   -0.81261E-05  1874   0.506E-02
  53 F= -.83418802E+02 E0= -.83422413E+02  d E =-.376945E-02
       N       E                     dE             d eps       ncg     rms          rms(c)
DAV:   1    -0.803250713031E+02   -0.60651E-03   -0.23981E-03  2760   0.219E-01    0.221E-02
RMM:   2    -0.803250798322E+02   -0.85291E-05   -0.18238E-04  2280   0.776E-02    0.127E-02
RMM:   3    -0.803250810851E+02   -0.12529E-05   -0.24258E-05  1351   0.273E-02
  54 F= -.83419656E+02 E0= -.83423258E+02  d E =-.854243E-03
       N       E                     dE             d eps       ncg     rms          rms(c)
DAV:   1    -0.803264991452E+02   -0.14193E-02   -0.22663E-02  2128   0.658E-01    0.590E-02
RMM:   2    -0.803265700393E+02   -0.70894E-04   -0.12276E-03  2554   0.229E-01    0.336E-02
RMM:   3    -0.803265822361E+02   -0.12197E-04   -0.24794E-04  2178   0.641E-02    0.218E-02
RMM:   4    -0.803265826879E+02   -0.45175E-06   -0.44556E-05  1585   0.506E-02
  55 F= -.83421858E+02 E0= -.83425429E+02  d E =-.305607E-02
       N       E                     dE             d eps       ncg     rms          rms(c)
DAV:   1    -0.803276352717E+02   -0.10530E-02   -0.89804E-02  2000   0.131E+00    0.114E-01
RMM:   2    -0.803279035212E+02   -0.26825E-03   -0.48368E-03  2530   0.460E-01    0.617E-02
RMM:   3    -0.803279728272E+02   -0.69306E-04   -0.10961E-03  2647   0.131E-01    0.405E-02
RMM:   4    -0.803280055747E+02   -0.32747E-04   -0.19844E-04  2252   0.677E-02    0.324E-02
RMM:   5    -0.803279624831E+02    0.43092E-04   -0.55209E-05  1728   0.497E-02    0.142E-02
RMM:   6    -0.803279619273E+02    0.55575E-06   -0.25675E-05  1446   0.338E-02
  56 F= -.83424641E+02 E0= -.83428160E+02  d E =-.583905E-02
       N       E                     dE             d eps       ncg     rms          rms(c)
DAV:   1    -0.803229684727E+02    0.49940E-02   -0.35652E-01  2000   0.261E+00    0.220E-01
RMM:   2    -0.803239856822E+02   -0.10172E-02   -0.17731E-02  2488   0.921E-01    0.126E-01
RMM:   3    -0.803243999963E+02   -0.41431E-03   -0.47201E-03  2684   0.278E-01    0.903E-02
RMM:   4    -0.803243895833E+02    0.10413E-04   -0.12120E-03  2682   0.153E-01    0.763E-02
RMM:   5    -0.803242466025E+02    0.14298E-03   -0.23876E-04  2331   0.796E-02    0.364E-02
RMM:   6    -0.803242356927E+02    0.10910E-04   -0.11018E-04  2052   0.697E-02    0.164E-02
RMM:   7    -0.803242348125E+02    0.88018E-06   -0.40845E-05  1579   0.375E-02
  57 F= -.83423735E+02 E0= -.83427133E+02  d E =-.493358E-02
       N       E                     dE             d eps       ncg     rms          rms(c)
DAV:   1    -0.803270565431E+02   -0.28209E-02   -0.12765E-01  2000   0.156E+00    0.134E-01
RMM:   2    -0.803274207230E+02   -0.36418E-03   -0.63712E-03  2487   0.550E-01    0.756E-02
RMM:   3    -0.803275999671E+02   -0.17924E-03   -0.16559E-03  2672   0.165E-01    0.571E-02
RMM:   4    -0.803275595557E+02    0.40411E-04   -0.41398E-04  2459   0.933E-02    0.457E-02
RMM:   5    -0.803275278709E+02    0.31685E-04   -0.84466E-05  2020   0.485E-02    0.205E-02
RMM:   6    -0.803275266604E+02    0.12105E-05   -0.38089E-05  1586   0.447E-02
  58 F= -.83425338E+02 E0= -.83428808E+02  d E =-.653658E-02
       N       E                     dE             d eps       ncg     rms          rms(c)
DAV:   1    -0.803277320391E+02   -0.20417E-03   -0.63660E-02  2064   0.115E+00    0.598E-02
RMM:   2    -0.803279036892E+02   -0.17165E-03   -0.20890E-03  2338   0.352E-01    0.381E-02
RMM:   3    -0.803279820708E+02   -0.78382E-04   -0.80246E-04  2368   0.132E-01    0.310E-02
RMM:   4    -0.803279696384E+02    0.12432E-04   -0.13944E-04  2006   0.778E-02    0.242E-02
RMM:   5    -0.803279614186E+02    0.82198E-05   -0.23420E-05  1403   0.330E-02
  59 F= -.83426532E+02 E0= -.83429968E+02  d E =-.119341E-02
       N       E                     dE             d eps       ncg     rms          rms(c)
DAV:   1    -0.803260419557E+02    0.19277E-02   -0.56670E-01  2000   0.342E+00    0.177E-01
RMM:   2    -0.803275296175E+02   -0.14877E-02   -0.18193E-02  2319   0.104E+00    0.112E-01
RMM:   3    -0.803282313511E+02   -0.70173E-03   -0.71058E-03  2590   0.385E-01    0.891E-02
RMM:   4    -0.803281091011E+02    0.12225E-03   -0.11999E-03  2636   0.183E-01    0.730E-02
RMM:   5    -0.803280306443E+02    0.78457E-04   -0.24011E-04  2343   0.741E-02    0.377E-02
RMM:   6    -0.803280189216E+02    0.11723E-04   -0.12501E-04  2106   0.611E-02    0.135E-02
RMM:   7    -0.803280176688E+02    0.12528E-05   -0.34237E-05  1473   0.416E-02
  60 F= -.83428874E+02 E0= -.83432217E+02  d E =-.353569E-02
       N       E                     dE             d eps       ncg     rms          rms(c)
DAV:   1    -0.803145321727E+02    0.13487E-01   -0.22743E+00  2000   0.687E+00    0.353E-01
RMM:   2    -0.803204012391E+02   -0.58691E-02   -0.70949E-02  2303   0.208E+00    0.220E-01
RMM:   3    -0.803234100898E+02   -0.30089E-02   -0.30131E-02  2585   0.797E-01    0.172E-01
RMM:   4    -0.803229967733E+02    0.41332E-03   -0.48811E-03  2679   0.367E-01    0.145E-01
RMM:   5    -0.803226858086E+02    0.31096E-03   -0.83813E-04  2585   0.134E-01    0.791E-02
RMM:   6    -0.803226364586E+02    0.49350E-04   -0.55830E-04  2619   0.101E-01    0.233E-02
RMM:   7    -0.803226365137E+02   -0.55043E-07   -0.85822E-05  1975   0.548E-02
  61 F= -.83428114E+02 E0= -.83431258E+02  d E =-.277526E-02
       N       E                     dE             d eps       ncg     rms          rms(c)
DAV:   1    -0.803239794830E+02   -0.13430E-02   -0.73581E-01  2000   0.391E+00    0.198E-01
RMM:   2    -0.803261021459E+02   -0.21227E-02   -0.25761E-02  2346   0.118E+00    0.127E-01
RMM:   3    -0.803268792623E+02   -0.77712E-03   -0.79993E-03  2605   0.408E-01    0.102E-01
RMM:   4    -0.803267110367E+02    0.16823E-03   -0.13947E-03  2660   0.190E-01    0.832E-02
RMM:   5    -0.803266204598E+02    0.90577E-04   -0.36281E-04  2425   0.850E-02    0.383E-02
RMM:   6    -0.803266095709E+02    0.10889E-04   -0.13149E-04  2135   0.669E-02    0.150E-02
RMM:   7    -0.803266095680E+02    0.29013E-08   -0.42902E-05  1559   0.437E-02
  62 F= -.83429454E+02 E0= -.83432714E+02  d E =-.411577E-02
       N       E                     dE             d eps       ncg     rms          rms(c)
DAV:   1    -0.803274413752E+02   -0.83180E-03   -0.72657E-02  2352   0.126E+00    0.627E-02
RMM:   2    -0.803276260595E+02   -0.18468E-03   -0.21378E-03  2345   0.348E-01    0.515E-02
RMM:   3    -0.803276757478E+02   -0.49688E-04   -0.66472E-04  2442   0.125E-01    0.404E-02
RMM:   4    -0.803276665496E+02    0.91983E-05   -0.11596E-04  1953   0.683E-02    0.299E-02
RMM:   5    -0.803276581744E+02    0.83752E-05   -0.18691E-05  1345   0.307E-02
  63 F= -.83431076E+02 E0= -.83434334E+02  d E =-.162215E-02
       N       E                     dE             d eps       ncg     rms          rms(c)
DAV:   1    -0.803271940639E+02    0.47249E-03   -0.64422E-01  2000   0.377E+00    0.190E-01
RMM:   2    -0.803289385764E+02   -0.17445E-02   -0.19715E-02  2349   0.106E+00    0.158E-01
RMM:   3    -0.803294292739E+02   -0.49070E-03   -0.62339E-03  2597   0.379E-01    0.118E-01
RMM:   4    -0.803293886327E+02    0.40641E-04   -0.10881E-03  2645   0.172E-01    0.961E-02
RMM:   5    -0.803292841551E+02    0.10448E-03   -0.16798E-04  2195   0.796E-02    0.423E-02
RMM:   6    -0.803292932623E+02   -0.91071E-05   -0.17802E-04  2254   0.637E-02    0.147E-02
RMM:   7    -0.803292904904E+02    0.27719E-05   -0.15936E-05  1327   0.294E-02
  64 F= -.83434434E+02 E0= -.83437692E+02  d E =-.498020E-02
       N       E                     dE             d eps       ncg     rms          rms(c)
DAV:   1    -0.803169036321E+02    0.12390E-01   -0.25868E+00  2000   0.753E+00    0.389E-01
RMM:   2    -0.803240498718E+02   -0.71462E-02   -0.80967E-02  2358   0.214E+00    0.326E-01
RMM:   3    -0.803260836908E+02   -0.20338E-02   -0.25507E-02  2600   0.760E-01    0.241E-01
RMM:   4    -0.803259923074E+02    0.91383E-04   -0.43515E-03  2681   0.339E-01    0.202E-01
RMM:   5    -0.803254768859E+02    0.51542E-03   -0.72408E-04  2447   0.158E-01    0.898E-02
RMM:   6    -0.803255113143E+02   -0.34428E-04   -0.73968E-04  2609   0.117E-01    0.335E-02
RMM:   7    -0.803254948106E+02    0.16504E-04   -0.70761E-05  1869   0.495E-02    0.246E-02
RMM:   8    -0.803254820047E+02    0.12806E-04   -0.51144E-05  1677   0.385E-02    0.761E-03
RMM:   9    -0.803254837731E+02   -0.17684E-05   -0.15463E-05  1321   0.334E-02
  65 F= -.83434102E+02 E0= -.83437357E+02  d E =-.464755E-02
       N       E                     dE             d eps       ncg     rms          rms(c)
DAV:   1    -0.803262279833E+02   -0.74598E-03   -0.78809E-01  2000   0.416E+00    0.209E-01
RMM:   2    -0.803283795666E+02   -0.21516E-02   -0.24758E-02  2359   0.117E+00    0.178E-01
RMM:   3    -0.803289217588E+02   -0.54219E-03   -0.72533E-03  2578   0.411E-01    0.130E-01
RMM:   4    -0.803289167335E+02    0.50253E-05   -0.13790E-03  2666   0.191E-01    0.108E-01
RMM:   5    -0.803287714919E+02    0.14524E-03   -0.20930E-04  2224   0.841E-02    0.464E-02
RMM:   6    -0.803287735304E+02   -0.20385E-05   -0.18192E-04  2274   0.672E-02    0.142E-02
RMM:   7    -0.803287712469E+02    0.22835E-05   -0.19463E-05  1373   0.319E-02
  66 F= -.83435470E+02 E0= -.83438726E+02  d E =-.601638E-02
       N       E                     dE             d eps       ncg     rms          rms(c)
DAV:   1    -0.803284641125E+02    0.30942E-03   -0.18757E-01  2032   0.198E+00    0.864E-02
RMM:   2    -0.803289006811E+02   -0.43657E-03   -0.52882E-03  2241   0.533E-01    0.765E-02
RMM:   3    -0.803290246506E+02   -0.12397E-03   -0.19572E-03  2487   0.214E-01    0.548E-02
RMM:   4    -0.803290070250E+02    0.17626E-04   -0.29584E-04  2283   0.102E-01    0.436E-02
RMM:   5    -0.803289842289E+02    0.22796E-04   -0.50701E-05  1722   0.507E-02    0.217E-02
RMM:   6    -0.803289806025E+02    0.36264E-05   -0.58336E-05  1669   0.472E-02
  67 F= -.83435972E+02 E0= -.83439247E+02  d E =-.501977E-03
       N       E                     dE             d eps       ncg     rms          rms(c)
DAV:   1    -0.803290611543E+02   -0.76925E-04   -0.68359E-03  2400   0.379E-01    0.165E-02
RMM:   2    -0.803290765742E+02   -0.15420E-04   -0.21414E-04  2012   0.981E-02    0.142E-02
RMM:   3    -0.803290795515E+02   -0.29774E-05   -0.57710E-05  1480   0.408E-02
  68 F= -.83436017E+02 E0= -.83439293E+02  d E =-.546581E-03
       N       E                     dE             d eps       ncg     rms          rms(c)
DAV:   1    -0.803294846887E+02   -0.40811E-03   -0.25210E-02  2152   0.718E-01    0.461E-02
RMM:   2    -0.803296058094E+02   -0.12112E-03   -0.11215E-03  2547   0.229E-01    0.315E-02
RMM:   3    -0.803296064504E+02   -0.64097E-06   -0.28806E-04  2282   0.849E-02    0.223E-02
RMM:   4    -0.803295929665E+02    0.13484E-04   -0.37399E-05  1470   0.465E-02    0.130E-02
RMM:   5    -0.803295922558E+02    0.71062E-06   -0.10941E-05  1270   0.287E-02
  69 F= -.83436666E+02 E0= -.83439976E+02  d E =-.649171E-03
       N       E                     dE             d eps       ncg     rms          rms(c)
DAV:   1    -0.803293929037E+02    0.20006E-03   -0.22475E-01  2000   0.215E+00    0.132E-01
RMM:   2    -0.803303435954E+02   -0.95069E-03   -0.95780E-03  2481   0.676E-01    0.931E-02
RMM:   3    -0.803304339910E+02   -0.90396E-04   -0.24412E-03  2674   0.239E-01    0.671E-02
RMM:   4    -0.803303212247E+02    0.11277E-03   -0.33792E-04  2346   0.919E-02    0.455E-02
RMM:   5    -0.803303072940E+02    0.13931E-04   -0.99635E-05  2056   0.620E-02    0.204E-02
RMM:   6    -0.803303016289E+02    0.56651E-05   -0.52912E-05  1714   0.463E-02
  70 F= -.83437790E+02 E0= -.83441206E+02  d E =-.177343E-02
       N       E                     dE             d eps       ncg     rms          rms(c)
DAV:   1    -0.803242609367E+02    0.60464E-02   -0.89979E-01  2000   0.429E+00    0.265E-01
RMM:   2    -0.803280357364E+02   -0.37748E-02   -0.37915E-02  2489   0.136E+00    0.185E-01
RMM:   3    -0.803284388845E+02   -0.40315E-03   -0.10144E-02  2655   0.486E-01    0.133E-01
RMM:   4    -0.803279923465E+02    0.44654E-03   -0.13971E-03  2613   0.188E-01    0.899E-02
RMM:   5    -0.803279328264E+02    0.59520E-04   -0.39079E-04  2413   0.107E-01    0.452E-02
RMM:   6    -0.803279039813E+02    0.28845E-04   -0.19862E-04  2211   0.900E-02    0.110E-02
RMM:   7    -0.803279066714E+02   -0.26901E-05   -0.60234E-05  1709   0.346E-02
  71 F= -.83436251E+02 E0= -.83439893E+02  d E =-.234274E-03
       N       E                     dE             d eps       ncg     rms          rms(c)
DAV:   1    -0.803280707946E+02   -0.16681E-03   -0.53798E-01  2000   0.332E+00    0.202E-01
RMM:   2    -0.803303628412E+02   -0.22920E-02   -0.23226E-02  2474   0.105E+00    0.146E-01
RMM:   3    -0.803305262872E+02   -0.16345E-03   -0.57163E-03  2672   0.368E-01    0.103E-01
RMM:   4    -0.803302586814E+02    0.26761E-03   -0.75029E-04  2554   0.139E-01    0.694E-02
RMM:   5    -0.803302210443E+02    0.37637E-04   -0.25665E-04  2354   0.859E-02    0.317E-02
RMM:   6    -0.803302076330E+02    0.13411E-04   -0.10574E-04  2027   0.696E-02    0.847E-03
RMM:   7    -0.803302084172E+02   -0.78425E-06   -0.32397E-05  1544   0.314E-02
  72 F= -.83437889E+02 E0= -.83441359E+02  d E =-.187217E-02
       N       E                     dE             d eps       ncg     rms          rms(c)
DAV:   1    -0.803305279394E+02   -0.32031E-03   -0.68663E-03  2208   0.357E-01    0.300E-02
RMM:   2    -0.803305701705E+02   -0.42231E-04   -0.50878E-04  2546   0.126E-01    0.215E-02
RMM:   3    -0.803305753333E+02   -0.51628E-05   -0.66982E-05  1711   0.388E-02
  73 F= -.83438349E+02 E0= -.83441829E+02  d E =-.459887E-03
       N       E                     dE             d eps       ncg     rms          rms(c)
DAV:   1    -0.803305718842E+02   -0.17137E-05   -0.22174E-03  2616   0.208E-01    0.246E-02
RMM:   2    -0.803305842315E+02   -0.12347E-04   -0.18248E-04  2193   0.672E-02    0.181E-02
RMM:   3    -0.803305861492E+02   -0.19178E-05   -0.17922E-05  1334   0.307E-02
  74 F= -.83438412E+02 E0= -.83441888E+02  d E =-.523046E-03
       N       E                     dE             d eps       ncg     rms          rms(c)
DAV:   1    -0.803307563935E+02   -0.17216E-03   -0.19496E-03  2440   0.206E-01    0.156E-02
RMM:   2    -0.803307722151E+02   -0.15822E-04   -0.11653E-04  2094   0.595E-02    0.124E-02
RMM:   3    -0.803307649431E+02    0.72720E-05   -0.13646E-05  1226   0.327E-02
  75 F= -.83438626E+02 E0= -.83442103E+02  d E =-.213597E-03
       N       E                     dE             d eps       ncg     rms          rms(c)
DAV:   1    -0.803311919030E+02   -0.41969E-03   -0.16595E-02  2048   0.583E-01    0.343E-02
RMM:   2    -0.803312401968E+02   -0.48294E-04   -0.60421E-04  2374   0.178E-01    0.209E-02
RMM:   3    -0.803312587001E+02   -0.18503E-04   -0.17939E-04  2036   0.637E-02    0.186E-02
RMM:   4    -0.803312502154E+02    0.84846E-05   -0.28599E-05  1455   0.461E-02
  76 F= -.83439216E+02 E0= -.83442686E+02  d E =-.804018E-03
       N       E                     dE             d eps       ncg     rms          rms(c)
DAV:   1    -0.803317132845E+02   -0.45458E-03   -0.65730E-02  2000   0.116E+00    0.657E-02
RMM:   2    -0.803319104469E+02   -0.19716E-03   -0.24210E-03  2465   0.341E-01    0.387E-02
RMM:   3    -0.803319740181E+02   -0.63571E-04   -0.62398E-04  2389   0.112E-01    0.335E-02
RMM:   4    -0.803319508594E+02    0.23159E-04   -0.10861E-04  1908   0.689E-02    0.227E-02
RMM:   5    -0.803319453392E+02    0.55203E-05   -0.20771E-05  1382   0.302E-02
  77 F= -.83440124E+02 E0= -.83443583E+02  d E =-.171204E-02
       N       E                     dE             d eps       ncg     rms          rms(c)
DAV:   1    -0.803313153671E+02    0.63549E-03   -0.26213E-01  2000   0.231E+00    0.130E-01
RMM:   2    -0.803321199893E+02   -0.80462E-03   -0.97062E-03  2464   0.676E-01    0.729E-02
RMM:   3    -0.803323800659E+02   -0.26008E-03   -0.24269E-03  2607   0.223E-01    0.643E-02
RMM:   4    -0.803322686974E+02    0.11137E-03   -0.40821E-04  2439   0.112E-01    0.435E-02
RMM:   5    -0.803322477982E+02    0.20899E-04   -0.87218E-05  1982   0.490E-02    0.187E-02
RMM:   6    -0.803322479194E+02   -0.12126E-06   -0.41897E-05  1595   0.444E-02
  78 F= -.83440864E+02 E0= -.83444301E+02  d E =-.245148E-02
       N       E                     dE             d eps       ncg     rms          rms(c)
DAV:   1    -0.803324940223E+02   -0.24622E-03   -0.12843E-02  2464   0.531E-01    0.325E-02
RMM:   2    -0.803325285535E+02   -0.34531E-04   -0.54435E-04  2509   0.151E-01    0.148E-02
RMM:   3    -0.803325372050E+02   -0.86515E-05   -0.10511E-04  1608   0.467E-02    0.117E-02
RMM:   4    -0.803325392368E+02   -0.20318E-05   -0.22665E-05  1367   0.452E-02
  79 F= -.83441216E+02 E0= -.83444663E+02  d E =-.352139E-03
       N       E                     dE             d eps       ncg     rms          rms(c)
DAV:   1    -0.803327722154E+02   -0.23501E-03   -0.11905E-01  2016   0.160E+00    0.927E-02
RMM:   2    -0.803330544346E+02   -0.28222E-03   -0.45286E-03  2553   0.444E-01    0.478E-02
RMM:   3    -0.803331322809E+02   -0.77846E-04   -0.10534E-03  2532   0.137E-01    0.355E-02
RMM:   4    -0.803331490140E+02   -0.16733E-04   -0.15260E-04  2031   0.729E-02    0.310E-02
RMM:   5    -0.803331221637E+02    0.26850E-04   -0.27819E-05  1452   0.403E-02    0.149E-02
RMM:   6    -0.803331227142E+02   -0.55060E-06   -0.32014E-05  1467   0.314E-02
  80 F= -.83441983E+02 E0= -.83445471E+02  d E =-.111900E-02
       N       E                     dE             d eps       ncg     rms          rms(c)
DAV:   1    -0.803316230137E+02    0.14991E-02   -0.47413E-01  2000   0.319E+00    0.185E-01
RMM:   2    -0.803327297922E+02   -0.11068E-02   -0.17896E-02  2551   0.885E-01    0.916E-02
RMM:   3    -0.803330608729E+02   -0.33108E-03   -0.43728E-03  2684   0.277E-01    0.666E-02
RMM:   4    -0.803331220063E+02   -0.61133E-04   -0.58303E-04  2577   0.121E-01    0.576E-02
RMM:   5    -0.803330321540E+02    0.89852E-04   -0.11429E-04  2087   0.634E-02    0.325E-02
RMM:   6    -0.803330297299E+02    0.24240E-05   -0.13895E-04  2111   0.543E-02    0.120E-02
RMM:   7    -0.803330258095E+02    0.39204E-05   -0.14749E-05  1302   0.318E-02
  81 F= -.83442257E+02 E0= -.83445817E+02  d E =-.139304E-02
       N       E                     dE             d eps       ncg     rms          rms(c)
DAV:   1    -0.803331103702E+02   -0.80640E-04   -0.46849E-02  2016   0.100E+00    0.566E-02
RMM:   2    -0.803332161967E+02   -0.10583E-03   -0.17321E-03  2557   0.273E-01    0.285E-02
RMM:   3    -0.803332411068E+02   -0.24910E-04   -0.35890E-04  2044   0.833E-02    0.208E-02
RMM:   4    -0.803332480638E+02   -0.69571E-05   -0.56803E-05  1610   0.579E-02
  82 F= -.83442362E+02 E0= -.83445904E+02  d E =-.149803E-02
       N       E                     dE             d eps       ncg     rms          rms(c)
DAV:   1    -0.803333369124E+02   -0.95806E-04   -0.83242E-04  2720   0.139E-01    0.112E-02
RMM:   2    -0.803333409496E+02   -0.40372E-05   -0.40926E-05  1475   0.441E-02
  83 F= -.83442469E+02 E0= -.83446012E+02  d E =-.107654E-03
       N       E                     dE             d eps       ncg     rms          rms(c)
DAV:   1    -0.803336100974E+02   -0.27318E-03   -0.71228E-03  2064   0.387E-01    0.267E-02
RMM:   2    -0.803336383666E+02   -0.28269E-04   -0.27207E-04  2391   0.115E-01    0.165E-02
RMM:   3    -0.803336383402E+02    0.26329E-07   -0.82110E-05  1681   0.495E-02
  84 F= -.83442811E+02 E0= -.83446362E+02  d E =-.449394E-03
       N       E                     dE             d eps       ncg     rms          rms(c)
DAV:   1    -0.803340717197E+02   -0.43335E-03   -0.27813E-02  2016   0.757E-01    0.535E-02
RMM:   2    -0.803341299825E+02   -0.58263E-04   -0.86235E-04  2414   0.224E-01    0.261E-02
RMM:   3    -0.803341714872E+02   -0.41505E-04   -0.34617E-04  2235   0.879E-02    0.217E-02
RMM:   4    -0.803341548909E+02    0.16596E-04   -0.58658E-05  1675   0.574E-02    0.137E-02
RMM:   5    -0.803341538185E+02    0.10724E-05   -0.12517E-05  1281   0.274E-02
  85 F= -.83443416E+02 E0= -.83446996E+02  d E =-.105382E-02
       N       E                     dE             d eps       ncg     rms          rms(c)
DAV:   1    -0.803345834469E+02   -0.42856E-03   -0.10937E-01  2000   0.150E+00    0.993E-02
RMM:   2    -0.803348885793E+02   -0.30513E-03   -0.39630E-03  2567   0.430E-01    0.451E-02
RMM:   3    -0.803349951241E+02   -0.10654E-03   -0.99062E-04  2656   0.142E-01    0.380E-02
RMM:   4    -0.803349568830E+02    0.38241E-04   -0.14888E-04  2116   0.660E-02    0.258E-02
RMM:   5    -0.803349470056E+02    0.98773E-05   -0.28640E-05  1465   0.407E-02
  86 F= -.83444388E+02 E0= -.83448018E+02  d E =-.202622E-02
       N       E                     dE             d eps       ncg     rms          rms(c)
DAV:   1    -0.803341078985E+02    0.84898E-03   -0.43661E-01  2000   0.300E+00    0.198E-01
RMM:   2    -0.803352306219E+02   -0.11227E-02   -0.14877E-02  2540   0.857E-01    0.890E-02
RMM:   3    -0.803356963234E+02   -0.46570E-03   -0.44665E-03  2699   0.297E-01    0.737E-02
RMM:   4    -0.803355743481E+02    0.12198E-03   -0.67145E-04  2616   0.128E-01    0.513E-02
RMM:   5    -0.803355340107E+02    0.40337E-04   -0.11494E-04  2105   0.562E-02    0.223E-02
RMM:   6    -0.803355326091E+02    0.14016E-05   -0.44025E-05  1627   0.429E-02
  87 F= -.83445337E+02 E0= -.83449060E+02  d E =-.297528E-02
       N       E                     dE             d eps       ncg     rms          rms(c)
DAV:   1    -0.803353554301E+02    0.17858E-03   -0.29789E-02  2096   0.787E-01    0.525E-02
RMM:   2    -0.803354510828E+02   -0.95653E-04   -0.11902E-03  2586   0.229E-01    0.239E-02
RMM:   3    -0.803354770335E+02   -0.25951E-04   -0.22600E-04  2146   0.710E-02    0.200E-02
RMM:   4    -0.803354664805E+02    0.10553E-04   -0.39534E-05  1526   0.514E-02    0.137E-02
RMM:   5    -0.803354649299E+02    0.15507E-05   -0.13092E-05  1286   0.285E-02
  88 F= -.83445366E+02 E0= -.83449115E+02  d E =-.300408E-02
       N       E                     dE             d eps       ncg     rms          rms(c)
DAV:   1    -0.803357283393E+02   -0.26186E-03   -0.22439E-02  2352   0.675E-01    0.343E-02
RMM:   2    -0.803357823697E+02   -0.54030E-04   -0.68368E-04  2451   0.166E-01    0.186E-02
RMM:   3    -0.803358008564E+02   -0.18487E-04   -0.16883E-04  1840   0.645E-02    0.170E-02
RMM:   4    -0.803357909253E+02    0.99311E-05   -0.29403E-05  1438   0.502E-02
  89 F= -.83445723E+02 E0= -.83449478E+02  d E =-.356803E-03
       N       E                     dE             d eps       ncg     rms          rms(c)
DAV:   1    -0.803358134242E+02   -0.12568E-04   -0.37463E-02  2064   0.873E-01    0.457E-02
RMM:   2    -0.803358928761E+02   -0.79452E-04   -0.10671E-03  2460   0.217E-01    0.251E-02
RMM:   3    -0.803359327082E+02   -0.39832E-04   -0.35199E-04  2117   0.873E-02    0.231E-02
RMM:   4    -0.803359129516E+02    0.19757E-04   -0.48047E-05  1598   0.557E-02    0.132E-02
RMM:   5    -0.803359119788E+02    0.97285E-06   -0.14427E-05  1287   0.289E-02
  90 F= -.83445884E+02 E0= -.83449644E+02  d E =-.517764E-03
       N       E                     dE             d eps       ncg     rms          rms(c)
DAV:   1    -0.803361681137E+02   -0.25516E-03   -0.77643E-03  2128   0.406E-01    0.234E-02
RMM:   2    -0.803361917376E+02   -0.23624E-04   -0.29283E-04  2344   0.117E-01    0.117E-02
RMM:   3    -0.803361992391E+02   -0.75015E-05   -0.60600E-05  1504   0.398E-02
  91 F= -.83446208E+02 E0= -.83449975E+02  d E =-.323893E-03
       N       E                     dE             d eps       ncg     rms          rms(c)
DAV:   1    -0.803366688043E+02   -0.47707E-03   -0.71440E-02  2000   0.122E+00    0.724E-02
RMM:   2    -0.803368509625E+02   -0.18216E-03   -0.24541E-03  2432   0.352E-01    0.389E-02
RMM:   3    -0.803369030108E+02   -0.52048E-04   -0.63179E-04  2358   0.117E-01    0.278E-02
RMM:   4    -0.803369002467E+02    0.27641E-05   -0.12563E-04  1987   0.698E-02    0.222E-02
RMM:   5    -0.803368894426E+02    0.10804E-04   -0.20826E-05  1354   0.324E-02    0.107E-02
RMM:   6    -0.803368891543E+02    0.28838E-06   -0.14282E-05  1292   0.338E-02
  92 F= -.83447009E+02 E0= -.83450788E+02  d E =-.112521E-02
       N       E                     dE             d eps       ncg     rms          rms(c)
DAV:   1    -0.803366565929E+02    0.23285E-03   -0.28264E-01  2000   0.243E+00    0.139E-01
RMM:   2    -0.803374170824E+02   -0.76049E-03   -0.96956E-03  2470   0.690E-01    0.717E-02
RMM:   3    -0.803376787248E+02   -0.26164E-03   -0.25052E-03  2621   0.230E-01    0.599E-02
RMM:   4    -0.803375951388E+02    0.83586E-04   -0.48423E-04  2496   0.113E-01    0.427E-02
RMM:   5    -0.803375689728E+02    0.26166E-04   -0.92953E-05  2039   0.526E-02    0.210E-02
RMM:   6    -0.803375656881E+02    0.32846E-05   -0.46361E-05  1687   0.460E-02
  93 F= -.83447915E+02 E0= -.83451715E+02  d E =-.203175E-02
