       N       E                     dE             d eps       ncg     rms          rms(c)
DAV:   1     0.221257898428E+04    0.22126E+04   -0.92245E+04  5736   0.157E+03
DAV:   2     0.275015083128E+03   -0.19376E+04   -0.18832E+04  5672   0.452E+02
DAV:   3    -0.685594435067E+02   -0.34357E+03   -0.33431E+03  6528   0.198E+02
DAV:   4    -0.964657708712E+02   -0.27906E+02   -0.27408E+02  6712   0.553E+01
DAV:   5    -0.996828372366E+02   -0.32171E+01   -0.31906E+01  9376   0.121E+01    0.473E+01
DAV:   6    -0.934266989729E+02    0.62561E+01   -0.22610E+01  8528   0.153E+01    0.300E+01
DAV:   7    -0.983220116023E+02   -0.48953E+01   -0.30437E+01  7376   0.197E+01    0.129E+01
DAV:   8    -0.949168418372E+02    0.34052E+01   -0.38077E+01  7408   0.126E+01    0.826E+00
DAV:   9    -0.928941300379E+02    0.20227E+01   -0.10819E+01  7680   0.643E+00    0.388E+00
DAV:  10    -0.929627783294E+02   -0.68648E-01   -0.12909E+00  6656   0.276E+00    0.264E+00
DAV:  11    -0.929351674695E+02    0.27611E-01   -0.19857E-01  7480   0.194E+00    0.164E+00
DAV:  12    -0.929290349368E+02    0.61325E-02   -0.82223E-02  7784   0.172E+00    0.550E-01
DAV:  13    -0.929292238339E+02   -0.18890E-03   -0.26648E-02  7000   0.155E+00    0.341E-01
DAV:  14    -0.929292795305E+02   -0.55697E-04   -0.54520E-03  6688   0.311E-01    0.205E-01
DAV:  15    -0.929284304668E+02    0.84906E-03   -0.21871E-03  7128   0.385E-01    0.852E-02
DAV:  16    -0.929282845102E+02    0.14596E-03   -0.65030E-04  7352   0.863E-02    0.685E-02
DAV:  17    -0.929281743886E+02    0.11012E-03   -0.27730E-04  6048   0.513E-02    0.248E-02
DAV:  18    -0.929284340144E+02   -0.25963E-03   -0.25590E-04  4760   0.418E-02    0.322E-02
DAV:  19    -0.929287738860E+02   -0.33987E-03   -0.70494E-05  4888   0.332E-02    0.255E-02
DAV:  20    -0.929291849326E+02   -0.41105E-03   -0.46910E-05  4784   0.255E-02    0.119E-02
DAV:  21    -0.929294120801E+02   -0.22715E-03   -0.19898E-05  5152   0.127E-02    0.104E-02
DAV:  22    -0.929296001682E+02   -0.18809E-03   -0.15712E-05  4768   0.174E-02    0.953E-03
DAV:  23    -0.929297602801E+02   -0.16011E-03   -0.98556E-06  4560   0.108E-02    0.485E-03
DAV:  24    -0.929297706892E+02   -0.10409E-04   -0.10294E-06  3768   0.713E-03    0.325E-03
DAV:  25    -0.929297963154E+02   -0.25626E-04   -0.12405E-06  3768   0.402E-03    0.133E-03
DAV:  26    -0.929298104650E+02   -0.14150E-04   -0.99514E-07  3848   0.350E-03    0.914E-04
DAV:  27    -0.929298113339E+02   -0.86895E-06   -0.20199E-07  3312   0.219E-03
   1 F= -.95970874E+02 E0= -.95973848E+02  d E =0.892302E-02
       N       E                     dE             d eps       ncg     rms          rms(c)
DAV:   1    -0.929266740894E+02    0.31364E-02   -0.14013E-01  4408   0.360E-01    0.164E-01
DAV:   2    -0.929265260291E+02    0.14806E-03   -0.37552E-03  4896   0.939E-02    0.902E-02
DAV:   3    -0.929265460157E+02   -0.19987E-04   -0.39385E-04  5032   0.101E-01    0.601E-02
DAV:   4    -0.929266102274E+02   -0.64212E-04   -0.68255E-04  5176   0.185E-01    0.469E-02
DAV:   5    -0.929265426700E+02    0.67557E-04   -0.37401E-04  5160   0.142E-01    0.106E-02
DAV:   6    -0.929265416285E+02    0.10415E-05   -0.15877E-05  4616   0.173E-02
   2 F= -.95967541E+02 E0= -.95970516E+02  d E =0.892326E-02
       N       E                     dE             d eps       ncg     rms          rms(c)
DAV:   1    -0.929280285614E+02   -0.14859E-02   -0.55298E-01  4840   0.710E-01    0.328E-01
DAV:   2    -0.929274366864E+02    0.59188E-03   -0.15747E-02  4896   0.191E-01    0.180E-01
DAV:   3    -0.929275015706E+02   -0.64884E-04   -0.15701E-03  5096   0.201E-01    0.121E-01
DAV:   4    -0.929277635873E+02   -0.26202E-03   -0.27024E-03  5400   0.374E-01    0.950E-02
DAV:   5    -0.929274837765E+02    0.27981E-03   -0.15281E-03  5256   0.277E-01    0.221E-02
DAV:   6    -0.929274769819E+02    0.67946E-05   -0.65802E-05  4776   0.355E-02
   3 F= -.95968607E+02 E0= -.95971581E+02  d E =0.892222E-02
       N       E                     dE             d eps       ncg     rms          rms(c)
DAV:   1    -0.929275886493E+02   -0.10487E-03   -0.30613E-01  4536   0.519E-01    0.298E-01
DAV:   2    -0.929264599139E+02    0.11287E-02   -0.11484E-02  4992   0.163E-01    0.157E-01
DAV:   3    -0.929264265275E+02    0.33386E-04   -0.12364E-03  4952   0.174E-01    0.106E-01
DAV:   4    -0.929265864172E+02   -0.15989E-03   -0.19977E-03  5280   0.316E-01    0.799E-02
DAV:   5    -0.929263733739E+02    0.21304E-03   -0.11966E-03  5272   0.259E-01    0.207E-02
DAV:   6    -0.929263648871E+02    0.84868E-05   -0.57631E-05  4752   0.345E-02
   4 F= -.95967351E+02 E0= -.95970327E+02  d E =0.892822E-02
       N       E                     dE             d eps       ncg     rms          rms(c)
DAV:   1    -0.929279083232E+02   -0.15349E-02   -0.55676E-01  4784   0.715E-01    0.339E-01
DAV:   2    -0.929271961173E+02    0.71221E-03   -0.16952E-02  4920   0.194E-01    0.185E-01
DAV:   3    -0.929272431954E+02   -0.47078E-04   -0.16639E-03  5040   0.201E-01    0.124E-01
DAV:   4    -0.929275247541E+02   -0.28156E-03   -0.28667E-03  5424   0.384E-01    0.980E-02
DAV:   5    -0.929272067296E+02    0.31802E-03   -0.16506E-03  5264   0.291E-01    0.233E-02
DAV:   6    -0.929271986790E+02    0.80507E-05   -0.67220E-05  4792   0.355E-02
   5 F= -.95968342E+02 E0= -.95971316E+02  d E =0.892029E-02
       N       E                     dE             d eps       ncg     rms          rms(c)
DAV:   1    -0.929267180154E+02    0.48871E-03   -0.25803E-01  4352   0.486E-01    0.143E-01
DAV:   2    -0.929270237409E+02   -0.30573E-03   -0.26158E-03  4824   0.665E-02    0.852E-02
DAV:   3    -0.929271000358E+02   -0.76295E-04   -0.15053E-04  5240   0.552E-02    0.300E-02
DAV:   4    -0.929271390480E+02   -0.39012E-04   -0.28752E-04  5360   0.119E-01    0.300E-02
DAV:   5    -0.929271064884E+02    0.32560E-04   -0.11790E-04  4568   0.770E-02    0.922E-03
DAV:   6    -0.929271072010E+02   -0.71255E-06   -0.47429E-06  3880   0.860E-03
   6 F= -.95968173E+02 E0= -.95971141E+02  d E =0.890398E-02
       N       E                     dE             d eps       ncg     rms          rms(c)
DAV:   1    -0.929267757466E+02    0.33074E-03   -0.57655E-01  4848   0.700E-01    0.355E-01
DAV:   2    -0.929258264067E+02    0.94934E-03   -0.14393E-02  5168   0.188E-01    0.183E-01
DAV:   3    -0.929258854867E+02   -0.59080E-04   -0.17291E-03  5168   0.242E-01    0.112E-01
DAV:   4    -0.929261357996E+02   -0.25031E-03   -0.32320E-03  5592   0.409E-01    0.972E-02
DAV:   5    -0.929258286228E+02    0.30718E-03   -0.12801E-03  5256   0.274E-01    0.212E-02
DAV:   6    -0.929258289175E+02   -0.29468E-06   -0.48570E-05  4968   0.299E-02
   7 F= -.95966893E+02 E0= -.95969869E+02  d E =0.892863E-02
       N       E                     dE             d eps       ncg     rms          rms(c)
DAV:   1    -0.929277433216E+02   -0.19147E-02   -0.29456E-01  4464   0.511E-01    0.275E-01
DAV:   2    -0.929265939446E+02    0.11494E-02   -0.83816E-03  4992   0.185E-01    0.128E-01
DAV:   3    -0.929267572403E+02   -0.16330E-03   -0.19540E-03  5248   0.266E-01    0.964E-02
DAV:   4    -0.929266912657E+02    0.65975E-04   -0.14808E-03  5120   0.281E-01    0.650E-02
DAV:   5    -0.929266552345E+02    0.36031E-04   -0.36967E-04  5384   0.120E-01    0.218E-02
DAV:   6    -0.929266496934E+02    0.55411E-05   -0.47506E-05  4920   0.279E-02
   8 F= -.95967803E+02 E0= -.95970777E+02  d E =0.892280E-02
       N       E                     dE             d eps       ncg     rms          rms(c)
DAV:   1    -0.929272924578E+02   -0.63722E-03   -0.56713E-01  4792   0.725E-01    0.344E-01
DAV:   2    -0.929264722219E+02    0.82024E-03   -0.16906E-02  4912   0.209E-01    0.186E-01
DAV:   3    -0.929265543089E+02   -0.82087E-04   -0.19907E-03  5160   0.237E-01    0.128E-01
DAV:   4    -0.929267477047E+02   -0.19340E-03   -0.29180E-03  5336   0.385E-01    0.970E-02
DAV:   5    -0.929264942231E+02    0.25348E-03   -0.14487E-03  5264   0.291E-01    0.230E-02
DAV:   6    -0.929264866669E+02    0.75562E-05   -0.76760E-05  4944   0.360E-02
   9 F= -.95967463E+02 E0= -.95970440E+02  d E =0.892998E-02
       N       E                     dE             d eps       ncg     rms          rms(c)
DAV:   1    -0.929285826232E+02   -0.20884E-02   -0.30391E-01  4544   0.511E-01    0.301E-01
DAV:   2    -0.929274322504E+02    0.11504E-02   -0.12223E-02  5064   0.172E-01    0.159E-01
DAV:   3    -0.929273998693E+02    0.32381E-04   -0.13318E-03  4920   0.191E-01    0.110E-01
DAV:   4    -0.929275483882E+02   -0.14852E-03   -0.20654E-03  5264   0.325E-01    0.822E-02
DAV:   5    -0.929273380242E+02    0.21036E-03   -0.11823E-03  5216   0.238E-01    0.210E-02
DAV:   6    -0.929273295985E+02    0.84257E-05   -0.62083E-05  4928   0.351E-02
  10 F= -.95968461E+02 E0= -.95971434E+02  d E =0.891910E-02
       N       E                     dE             d eps       ncg     rms          rms(c)
DAV:   1    -0.929274344711E+02   -0.96447E-04   -0.55714E-01  4768   0.722E-01    0.323E-01
DAV:   2    -0.929268849797E+02    0.54949E-03   -0.14691E-02  4896   0.178E-01    0.176E-01
DAV:   3    -0.929269404145E+02   -0.55435E-04   -0.14435E-03  5048   0.179E-01    0.115E-01
DAV:   4    -0.929272056900E+02   -0.26528E-03   -0.25291E-03  5432   0.359E-01    0.902E-02
DAV:   5    -0.929269228326E+02    0.28286E-03   -0.15202E-03  5224   0.303E-01    0.216E-02
DAV:   6    -0.929269156664E+02    0.71662E-05   -0.59060E-05  4752   0.346E-02
  11 F= -.95967913E+02 E0= -.95970888E+02  d E =0.892396E-02
       N       E                     dE             d eps       ncg     rms          rms(c)
DAV:   1    -0.929278859265E+02   -0.96309E-03   -0.29972E-01  4544   0.514E-01    0.298E-01
DAV:   2    -0.929269442116E+02    0.94171E-03   -0.12348E-02  5008   0.171E-01    0.156E-01
DAV:   3    -0.929269436677E+02    0.54389E-06   -0.14370E-03  4960   0.197E-01    0.102E-01
DAV:   4    -0.929271124799E+02   -0.16881E-03   -0.22224E-03  5344   0.341E-01    0.836E-02
DAV:   5    -0.929268804052E+02    0.23207E-03   -0.10500E-03  5264   0.222E-01    0.196E-02
DAV:   6    -0.929268751428E+02    0.52623E-05   -0.47904E-05  4824   0.279E-02
  12 F= -.95967935E+02 E0= -.95970902E+02  d E =0.890103E-02
       N       E                     dE             d eps       ncg     rms          rms(c)
DAV:   1    -0.929272116149E+02   -0.33121E-03   -0.57508E-01  4824   0.697E-01    0.353E-01
DAV:   2    -0.929262890807E+02    0.92253E-03   -0.14174E-02  5272   0.191E-01    0.180E-01
DAV:   3    -0.929263636816E+02   -0.74601E-04   -0.18694E-03  5176   0.259E-01    0.112E-01
DAV:   4    -0.929265564748E+02   -0.19279E-03   -0.31668E-03  5624   0.409E-01    0.942E-02
DAV:   5    -0.929262878431E+02    0.26863E-03   -0.11355E-03  5224   0.255E-01    0.208E-02
DAV:   6    -0.929262882481E+02   -0.40495E-06   -0.48950E-05  4952   0.295E-02
  13 F= -.95967358E+02 E0= -.95970337E+02  d E =0.893519E-02
       N       E                     dE             d eps       ncg     rms          rms(c)
DAV:   1    -0.929240472293E+02    0.22406E-02   -0.16656E+00  4944   0.164E+00    0.324E-01
DAV:   2    -0.929247386439E+02   -0.69141E-03   -0.20457E-02  5112   0.200E-01    0.194E-01
DAV:   3    -0.929245106661E+02    0.22798E-03   -0.15283E-03  5296   0.172E-01    0.106E-01
DAV:   4    -0.929248735630E+02   -0.36290E-03   -0.31838E-03  5520   0.389E-01    0.957E-02
DAV:   5    -0.929244993724E+02    0.37419E-03   -0.16255E-03  5288   0.289E-01    0.198E-02
DAV:   6    -0.929245042467E+02   -0.48743E-05   -0.54227E-05  5088   0.248E-02
  14 F= -.95965557E+02 E0= -.95968540E+02  d E =0.894809E-02
       N       E                     dE             d eps       ncg     rms          rms(c)
DAV:   1    -0.929208450510E+02    0.36543E-02   -0.66671E+00  5224   0.322E+00    0.550E-01
DAV:   2    -0.929255020573E+02   -0.46570E-02   -0.86876E-02  5440   0.330E-01    0.363E-01
DAV:   3    -0.929238681764E+02    0.16339E-02   -0.47627E-03  5224   0.131E-01    0.194E-01
DAV:   4    -0.929239267120E+02   -0.58536E-04   -0.35685E-03  5152   0.273E-01    0.702E-02
DAV:   5    -0.929238227996E+02    0.10391E-03   -0.19291E-03  5112   0.290E-01    0.384E-02
DAV:   6    -0.929237995834E+02    0.23216E-04   -0.17221E-04  4744   0.821E-02    0.213E-02
DAV:   7    -0.929238040878E+02   -0.45044E-05   -0.26153E-05  4792   0.182E-02
  15 F= -.95964875E+02 E0= -.95967839E+02  d E =0.889083E-02
       N       E                     dE             d eps       ncg     rms          rms(c)
DAV:   1    -0.929241334014E+02   -0.33382E-03   -0.33003E+00  5112   0.214E+00    0.486E-01
DAV:   2    -0.929259666589E+02   -0.18333E-02   -0.50864E-02  5448   0.220E-01    0.294E-01
DAV:   3    -0.929248834373E+02    0.10832E-02   -0.38628E-03  5168   0.917E-02    0.128E-01
DAV:   4    -0.929249392906E+02   -0.55853E-04   -0.13105E-03  5056   0.973E-02    0.295E-02
DAV:   5    -0.929249629310E+02   -0.23640E-04   -0.42381E-04  5312   0.134E-01    0.289E-02
DAV:   6    -0.929249395388E+02    0.23392E-04   -0.12503E-04  5048   0.801E-02    0.112E-02
DAV:   7    -0.929249414494E+02   -0.19107E-05   -0.94523E-06  4096   0.120E-02
  16 F= -.95966011E+02 E0= -.95968991E+02  d E =0.894048E-02
       N       E                     dE             d eps       ncg     rms          rms(c)
DAV:   1    -0.929215936789E+02    0.33459E-02   -0.66848E+00  5544   0.323E+00    0.541E-01
DAV:   2    -0.929256256272E+02   -0.40319E-02   -0.79026E-02  5464   0.322E-01    0.353E-01
DAV:   3    -0.929239747643E+02    0.16509E-02   -0.48573E-03  5224   0.113E-01    0.177E-01
DAV:   4    -0.929239561622E+02    0.18602E-04   -0.26226E-03  5112   0.187E-01    0.497E-02
DAV:   5    -0.929239949498E+02   -0.38788E-04   -0.14253E-03  5080   0.252E-01    0.458E-02
DAV:   6    -0.929239332004E+02    0.61749E-04   -0.30011E-04  5024   0.122E-01    0.202E-02
DAV:   7    -0.929239384468E+02   -0.52464E-05   -0.22948E-05  4768   0.175E-02
  17 F= -.95964994E+02 E0= -.95967959E+02  d E =0.889489E-02
       N       E                     dE             d eps       ncg     rms          rms(c)
DAV:   1    -0.929215359028E+02    0.23973E-02   -0.33648E+00  5096   0.229E+00    0.103E+00
DAV:   2    -0.929219916928E+02   -0.45579E-03   -0.39807E-02  5752   0.289E-01    0.581E-01
DAV:   3    -0.929212457807E+02    0.74591E-03   -0.60490E-03  5216   0.271E-01    0.103E-01
DAV:   4    -0.929217231428E+02   -0.47736E-03   -0.51763E-03  5672   0.491E-01    0.106E-01
DAV:   5    -0.929212149504E+02    0.50819E-03   -0.24304E-03  5776   0.414E-01    0.367E-02
DAV:   6    -0.929212112676E+02    0.36828E-05   -0.73885E-05  5064   0.413E-02
  18 F= -.95961652E+02 E0= -.95964594E+02  d E =0.882866E-02
       N       E                     dE             d eps       ncg     rms          rms(c)
DAV:   1    -0.929237805741E+02   -0.25656E-02   -0.67157E+00  5240   0.317E+00    0.215E+00
DAV:   2    -0.929210339178E+02    0.27467E-02   -0.92158E-02  5816   0.459E-01    0.118E+00
DAV:   3    -0.929194533601E+02    0.15806E-02   -0.14794E-02  6072   0.383E-01    0.195E-01
DAV:   4    -0.929198354207E+02   -0.38206E-03   -0.48602E-03  5568   0.436E-01    0.110E-01
DAV:   5    -0.929195209043E+02    0.31452E-03   -0.30188E-03  5832   0.422E-01    0.838E-02
DAV:   6    -0.929194390937E+02    0.81811E-04   -0.36639E-04  5280   0.120E-01    0.487E-02
DAV:   7    -0.929194316878E+02    0.74059E-05   -0.11215E-04  5176   0.419E-02    0.177E-02
DAV:   8    -0.929194344965E+02   -0.28087E-05   -0.31901E-05  4744   0.289E-02
  19 F= -.95961122E+02 E0= -.95964133E+02  d E =0.903127E-02
