       N       E                     dE             d eps       ncg     rms          rms(c)
DAV:   1     0.223213791331E+04    0.22321E+04   -0.92943E+04  5744   0.159E+03
DAV:   2     0.272347053246E+03   -0.19598E+04   -0.19069E+04  5672   0.455E+02
DAV:   3    -0.712399621518E+02   -0.34359E+03   -0.33432E+03  6368   0.199E+02
DAV:   4    -0.992417971179E+02   -0.28002E+02   -0.27460E+02  6792   0.556E+01
DAV:   5    -0.102505898700E+03   -0.32641E+01   -0.32368E+01  9328   0.122E+01    0.442E+01
DAV:   6    -0.975036555645E+02    0.50022E+01   -0.14031E+01  8536   0.142E+01    0.278E+01
DAV:   7    -0.985011233431E+02   -0.99747E+00   -0.15959E+01  7320   0.157E+01    0.921E+00
DAV:   8    -0.990622535498E+02   -0.56113E+00   -0.17146E+01  7472   0.111E+01    0.742E+00
DAV:   9    -0.969775407553E+02    0.20847E+01   -0.82241E+00  7776   0.639E+00    0.236E+00
DAV:  10    -0.970013973344E+02   -0.23857E-01   -0.13135E+00  6712   0.718E+00    0.150E+00
DAV:  11    -0.969823774230E+02    0.19020E-01   -0.25210E-01  6728   0.240E+00    0.865E-01
DAV:  12    -0.969832600705E+02   -0.88265E-03   -0.60973E-02  7240   0.900E-01    0.486E-01
DAV:  13    -0.969810201105E+02    0.22400E-02   -0.79228E-03  7576   0.315E-01    0.260E-01
DAV:  14    -0.969815161276E+02   -0.49602E-03   -0.15600E-03  6824   0.192E-01    0.938E-02
DAV:  15    -0.969811960385E+02    0.32009E-03   -0.10577E-03  6240   0.154E-01    0.761E-02
DAV:  16    -0.969813491564E+02   -0.15312E-03   -0.34655E-04  6592   0.567E-02    0.369E-02
DAV:  17    -0.969815057434E+02   -0.15659E-03   -0.31079E-04  4672   0.735E-02    0.314E-02
DAV:  18    -0.969817284687E+02   -0.22273E-03   -0.87447E-05  5088   0.301E-02    0.204E-02
DAV:  19    -0.969822529599E+02   -0.52449E-03   -0.42576E-05  4792   0.184E-02    0.105E-02
DAV:  20    -0.969825634015E+02   -0.31044E-03   -0.17267E-05  4608   0.121E-02    0.104E-02
DAV:  21    -0.969828272613E+02   -0.26386E-03   -0.13991E-05  4312   0.121E-02    0.577E-03
DAV:  22    -0.969829121826E+02   -0.84921E-04   -0.66140E-06  4184   0.717E-03    0.300E-03
DAV:  23    -0.969829296335E+02   -0.17451E-04   -0.12945E-06  4064   0.465E-03    0.190E-03
DAV:  24    -0.969829440185E+02   -0.14385E-04   -0.12725E-06  3872   0.513E-03    0.748E-04
DAV:  25    -0.969829465058E+02   -0.24873E-05   -0.39282E-07  3888   0.231E-03
   1 F= -.10009577E+03 E0= -.10009088E+03  d E =-.146642E-01
       N       E                     dE             d eps       ncg     rms          rms(c)
DAV:   1    -0.969818237292E+02    0.11203E-02   -0.13136E-01  4928   0.297E-01    0.996E-02
DAV:   2    -0.969819286492E+02   -0.10492E-03   -0.87830E-04  4904   0.325E-02    0.614E-02
DAV:   3    -0.969819750754E+02   -0.46426E-04   -0.77285E-05  4536   0.133E-02    0.114E-02
DAV:   4    -0.969819795426E+02   -0.44672E-05   -0.12698E-05  3984   0.739E-03
   2 F= -.10009480E+03 E0= -.10008991E+03  d E =-.146710E-01
       N       E                     dE             d eps       ncg     rms          rms(c)
DAV:   1    -0.969813537080E+02    0.62137E-03   -0.52461E-01  4960   0.613E-01    0.200E-01
DAV:   2    -0.969817232122E+02   -0.36950E-03   -0.31530E-03  4912   0.792E-02    0.122E-01
DAV:   3    -0.969819464796E+02   -0.22327E-03   -0.53028E-04  4896   0.122E-01    0.408E-02
DAV:   4    -0.969819694843E+02   -0.23005E-04   -0.81170E-04  5368   0.200E-01    0.373E-02
DAV:   5    -0.969819153921E+02    0.54092E-04   -0.20018E-04  4960   0.998E-02    0.858E-03
DAV:   6    -0.969819166914E+02   -0.12993E-05   -0.13765E-05  4504   0.966E-03
   3 F= -.10009474E+03 E0= -.10008985E+03  d E =-.146679E-01
       N       E                     dE             d eps       ncg     rms          rms(c)
DAV:   1    -0.969760828197E+02    0.58326E-02   -0.27303E-01  5240   0.451E-01    0.226E-01
DAV:   2    -0.969757626696E+02    0.32015E-03   -0.44407E-03  5080   0.725E-02    0.122E-01
DAV:   3    -0.969757567161E+02    0.59535E-05   -0.70243E-04  5224   0.428E-02    0.504E-02
DAV:   4    -0.969757760901E+02   -0.19374E-04   -0.20510E-04  5064   0.785E-02    0.238E-02
DAV:   5    -0.969757791249E+02   -0.30348E-05   -0.22889E-04  5032   0.101E-01    0.200E-02
DAV:   6    -0.969757639680E+02    0.15157E-04   -0.54548E-05  4464   0.543E-02    0.443E-03
DAV:   7    -0.969757646294E+02   -0.66133E-06   -0.38361E-06  3904   0.596E-03
   4 F= -.10008870E+03 E0= -.10008384E+03  d E =-.145649E-01
       N       E                     dE             d eps       ncg     rms          rms(c)
DAV:   1    -0.969773364004E+02   -0.15724E-02   -0.58622E-01  5424   0.631E-01    0.420E-01
DAV:   2    -0.969757360022E+02    0.16004E-02   -0.17915E-02  5472   0.140E-01    0.223E-01
DAV:   3    -0.969755332272E+02    0.20278E-03   -0.26161E-03  5280   0.652E-02    0.985E-02
DAV:   4    -0.969755335241E+02   -0.29692E-06   -0.46951E-04  5160   0.825E-02    0.375E-02
DAV:   5    -0.969755943152E+02   -0.60791E-04   -0.57315E-04  5240   0.171E-01    0.394E-02
DAV:   6    -0.969755240979E+02    0.70217E-04   -0.24433E-04  5040   0.108E-01    0.814E-03
DAV:   7    -0.969755247042E+02   -0.60634E-06   -0.81222E-06  4432   0.822E-03
   5 F= -.10008824E+03 E0= -.10008332E+03  d E =-.147609E-01
       N       E                     dE             d eps       ncg     rms          rms(c)
DAV:   1    -0.969829144304E+02   -0.73903E-02   -0.29627E-01  5312   0.432E-01    0.309E-01
DAV:   2    -0.969818848036E+02    0.10296E-02   -0.69057E-03  5360   0.938E-02    0.156E-01
DAV:   3    -0.969818301991E+02    0.54604E-04   -0.14880E-03  5144   0.901E-02    0.745E-02
DAV:   4    -0.969819023506E+02   -0.72151E-04   -0.80949E-04  5424   0.188E-01    0.519E-02
DAV:   5    -0.969818306243E+02    0.71726E-04   -0.71108E-04  5368   0.179E-01    0.243E-02
DAV:   6    -0.969818135706E+02    0.17054E-04   -0.77682E-05  4424   0.615E-02    0.556E-03
DAV:   7    -0.969818151589E+02   -0.15884E-05   -0.84785E-06  4352   0.810E-03
   6 F= -.10009461E+03 E0= -.10008974E+03  d E =-.146024E-01
       N       E                     dE             d eps       ncg     rms          rms(c)
DAV:   1    -0.969810748129E+02    0.73876E-03   -0.52765E-01  5120   0.576E-01    0.256E-01
DAV:   2    -0.969811931905E+02   -0.11838E-03   -0.56101E-03  5256   0.913E-02    0.140E-01
DAV:   3    -0.969813568649E+02   -0.16367E-03   -0.76896E-04  5456   0.979E-02    0.648E-02
DAV:   4    -0.969814722646E+02   -0.11540E-03   -0.85484E-04  5272   0.192E-01    0.521E-02
DAV:   5    -0.969813677668E+02    0.10450E-03   -0.57107E-04  5264   0.177E-01    0.133E-02
DAV:   6    -0.969813655101E+02    0.22567E-05   -0.26003E-05  4688   0.286E-02
   7 F= -.10009420E+03 E0= -.10008930E+03  d E =-.147119E-01
       N       E                     dE             d eps       ncg     rms          rms(c)
DAV:   1    -0.969773453420E+02    0.40224E-02   -0.27202E-01  5232   0.459E-01    0.213E-01
DAV:   2    -0.969775889492E+02   -0.24361E-03   -0.55242E-03  5120   0.798E-02    0.128E-01
DAV:   3    -0.969775566617E+02    0.32287E-04   -0.39536E-04  5432   0.320E-02    0.489E-02
DAV:   4    -0.969775738770E+02   -0.17215E-04   -0.10170E-04  4856   0.368E-02    0.125E-02
DAV:   5    -0.969775799835E+02   -0.61065E-05   -0.71386E-05  4760   0.574E-02
   8 F= -.10009031E+03 E0= -.10008544E+03  d E =-.146067E-01
       N       E                     dE             d eps       ncg     rms          rms(c)
DAV:   1    -0.969783507824E+02   -0.77691E-03   -0.56634E-01  5520   0.655E-01    0.385E-01
DAV:   2    -0.969770311666E+02    0.13196E-02   -0.12496E-02  5496   0.118E-01    0.199E-01
DAV:   3    -0.969769131282E+02    0.11804E-03   -0.20763E-03  5216   0.537E-02    0.861E-02
DAV:   4    -0.969769050927E+02    0.80355E-05   -0.36546E-04  5072   0.499E-02    0.300E-02
DAV:   5    -0.969769344349E+02   -0.29342E-04   -0.19845E-04  5008   0.917E-02    0.234E-02
DAV:   6    -0.969769078363E+02    0.26599E-04   -0.10116E-04  4784   0.720E-02    0.709E-03
DAV:   7    -0.969769082281E+02   -0.39179E-06   -0.40700E-06  3888   0.529E-03
   9 F= -.10008983E+03 E0= -.10008497E+03  d E =-.145813E-01
       N       E                     dE             d eps       ncg     rms          rms(c)
DAV:   1    -0.969814079525E+02   -0.45001E-02   -0.28837E-01  5248   0.463E-01    0.288E-01
DAV:   2    -0.969807497770E+02    0.65818E-03   -0.85651E-03  5240   0.995E-02    0.151E-01
DAV:   3    -0.969806578983E+02    0.91879E-04   -0.11315E-03  5280   0.556E-02    0.677E-02
DAV:   4    -0.969806798773E+02   -0.21979E-04   -0.34109E-04  5456   0.981E-02    0.327E-02
DAV:   5    -0.969806749711E+02    0.49061E-05   -0.39897E-04  5096   0.142E-01    0.256E-02
DAV:   6    -0.969806509992E+02    0.23972E-04   -0.86446E-05  4680   0.644E-02    0.567E-03
DAV:   7    -0.969806515481E+02   -0.54895E-06   -0.52789E-06  4232   0.622E-03
  10 F= -.10009342E+03 E0= -.10008851E+03  d E =-.147161E-01
       N       E                     dE             d eps       ncg     rms          rms(c)
DAV:   1    -0.969802595862E+02    0.39141E-03   -0.53791E-01  5232   0.619E-01    0.273E-01
DAV:   2    -0.969800534818E+02    0.20610E-03   -0.53806E-03  5104   0.817E-02    0.152E-01
DAV:   3    -0.969800986128E+02   -0.45131E-04   -0.10527E-03  5208   0.519E-02    0.553E-02
DAV:   4    -0.969801197802E+02   -0.21167E-04   -0.28529E-04  5104   0.889E-02    0.267E-02
DAV:   5    -0.969801285641E+02   -0.87839E-05   -0.30353E-04  5240   0.117E-01    0.242E-02
DAV:   6    -0.969801074670E+02    0.21097E-04   -0.77426E-05  4520   0.640E-02    0.536E-03
DAV:   7    -0.969801086501E+02   -0.11831E-05   -0.52401E-06  4192   0.701E-03
  11 F= -.10009299E+03 E0= -.10008811E+03  d E =-.146148E-01
       N       E                     dE             d eps       ncg     rms          rms(c)
DAV:   1    -0.969812927660E+02   -0.11853E-02   -0.25659E-01  4792   0.433E-01    0.138E-01
DAV:   2    -0.969815627898E+02   -0.27002E-03   -0.21158E-03  4968   0.521E-02    0.855E-02
DAV:   3    -0.969816462390E+02   -0.83449E-04   -0.14443E-04  5072   0.398E-02    0.204E-02
DAV:   4    -0.969816685826E+02   -0.22344E-04   -0.12468E-04  5104   0.794E-02    0.191E-02
DAV:   5    -0.969816524281E+02    0.16154E-04   -0.58252E-05  4256   0.518E-02    0.589E-03
DAV:   6    -0.969816525185E+02   -0.90342E-07   -0.31015E-06  3832   0.661E-03
  12 F= -.10009445E+03 E0= -.10008958E+03  d E =-.146179E-01
       N       E                     dE             d eps       ncg     rms          rms(c)
DAV:   1    -0.969812191390E+02    0.43329E-03   -0.52727E-01  5072   0.575E-01    0.255E-01
DAV:   2    -0.969813525194E+02   -0.13338E-03   -0.56156E-03  5224   0.872E-02    0.140E-01
DAV:   3    -0.969815144763E+02   -0.16196E-03   -0.72716E-04  5440   0.791E-02    0.624E-02
DAV:   4    -0.969816094934E+02   -0.95017E-04   -0.60759E-04  5264   0.159E-01    0.442E-02
DAV:   5    -0.969815395655E+02    0.69928E-04   -0.50751E-04  5328   0.163E-01    0.163E-02
DAV:   6    -0.969815328680E+02    0.66975E-05   -0.37029E-05  4600   0.380E-02
  13 F= -.10009437E+03 E0= -.10008947E+03  d E =-.147137E-01
       N       E                     dE             d eps       ncg     rms          rms(c)
DAV:   1    -0.969779298231E+02    0.36097E-02   -0.27840E-01  5136   0.455E-01    0.240E-01
DAV:   2    -0.969774489484E+02    0.48087E-03   -0.53997E-03  5176   0.821E-02    0.124E-01
DAV:   3    -0.969774745414E+02   -0.25593E-04   -0.13047E-03  5152   0.470E-02    0.633E-02
DAV:   4    -0.969774661373E+02    0.84041E-05   -0.26064E-04  5104   0.485E-02    0.285E-02
DAV:   5    -0.969774980938E+02   -0.31957E-04   -0.17625E-04  4992   0.882E-02    0.223E-02
DAV:   6    -0.969774740561E+02    0.24038E-04   -0.95120E-05  4632   0.705E-02    0.464E-03
DAV:   7    -0.969774749468E+02   -0.89065E-06   -0.45821E-06  4200   0.633E-03
  14 F= -.10009039E+03 E0= -.10008553E+03  d E =-.145804E-01
       N       E                     dE             d eps       ncg     rms          rms(c)
DAV:   1    -0.969781943677E+02   -0.72031E-03   -0.57200E-01  5376   0.639E-01    0.379E-01
DAV:   2    -0.969770709152E+02    0.11235E-02   -0.13762E-02  5304   0.126E-01    0.203E-01
DAV:   3    -0.969769485465E+02    0.12237E-03   -0.22192E-03  5264   0.673E-02    0.872E-02
DAV:   4    -0.969769687108E+02   -0.20164E-04   -0.47673E-04  5336   0.979E-02    0.380E-02
DAV:   5    -0.969770091029E+02   -0.40392E-04   -0.60271E-04  5224   0.175E-01    0.377E-02
DAV:   6    -0.969769509557E+02    0.58147E-04   -0.20490E-04  4984   0.102E-01    0.738E-03
DAV:   7    -0.969769519180E+02   -0.96233E-06   -0.90323E-06  4472   0.877E-03
  15 F= -.10008968E+03 E0= -.10008476E+03  d E =-.147494E-01
       N       E                     dE             d eps       ncg     rms          rms(c)
DAV:   1    -0.969801460949E+02   -0.31951E-02   -0.26790E-01  4880   0.421E-01    0.165E-01
DAV:   2    -0.969802481313E+02   -0.10204E-03   -0.20633E-03  4856   0.522E-02    0.962E-02
DAV:   3    -0.969803299487E+02   -0.81817E-04   -0.30219E-04  5056   0.433E-02    0.280E-02
DAV:   4    -0.969803542545E+02   -0.24306E-04   -0.16046E-04  5072   0.858E-02    0.211E-02
DAV:   5    -0.969803380814E+02    0.16173E-04   -0.10873E-04  4624   0.705E-02    0.907E-03
DAV:   6    -0.969803379730E+02    0.10840E-06   -0.71424E-06  3720   0.182E-02
  16 F= -.10009311E+03 E0= -.10008820E+03  d E =-.147085E-01
       N       E                     dE             d eps       ncg     rms          rms(c)
DAV:   1    -0.969805581105E+02   -0.22003E-03   -0.53849E-01  5232   0.616E-01    0.274E-01
DAV:   2    -0.969803095024E+02    0.24861E-03   -0.53362E-03  5032   0.831E-02    0.152E-01
DAV:   3    -0.969803913597E+02   -0.81857E-04   -0.10786E-03  5232   0.608E-02    0.555E-02
DAV:   4    -0.969804279605E+02   -0.36601E-04   -0.36736E-04  5192   0.112E-01    0.317E-02
DAV:   5    -0.969804187858E+02    0.91747E-05   -0.35492E-04  5360   0.128E-01    0.224E-02
DAV:   6    -0.969804039581E+02    0.14828E-04   -0.61078E-05  4560   0.573E-02    0.564E-03
DAV:   7    -0.969804052989E+02   -0.13408E-05   -0.54370E-06  4160   0.744E-03
  17 F= -.10009328E+03 E0= -.10008841E+03  d E =-.146121E-01
       N       E                     dE             d eps       ncg     rms          rms(c)
DAV:   1    -0.969815604812E+02   -0.11565E-02   -0.25681E-01  4792   0.434E-01    0.138E-01
DAV:   2    -0.969818237008E+02   -0.26322E-03   -0.20966E-03  4976   0.519E-02    0.856E-02
DAV:   3    -0.969819136272E+02   -0.89926E-04   -0.14678E-04  5056   0.414E-02    0.206E-02
DAV:   4    -0.969819375896E+02   -0.23962E-04   -0.13441E-04  5096   0.830E-02    0.198E-02
DAV:   5    -0.969819201046E+02    0.17485E-04   -0.62864E-05  4264   0.541E-02    0.589E-03
DAV:   6    -0.969819202643E+02   -0.15967E-06   -0.32758E-06  3840   0.661E-03
  18 F= -.10009472E+03 E0= -.10008984E+03  d E =-.146173E-01
       N       E                     dE             d eps       ncg     rms          rms(c)
DAV:   1    -0.969809545356E+02    0.96557E-03   -0.52781E-01  5072   0.576E-01    0.256E-01
DAV:   2    -0.969810833098E+02   -0.12877E-03   -0.55985E-03  5232   0.874E-02    0.140E-01
DAV:   3    -0.969812433441E+02   -0.16003E-03   -0.73156E-04  5440   0.796E-02    0.625E-02
DAV:   4    -0.969813389321E+02   -0.95588E-04   -0.61288E-04  5264   0.159E-01    0.444E-02
DAV:   5    -0.969812683242E+02    0.70608E-04   -0.51074E-04  5328   0.163E-01    0.164E-02
DAV:   6    -0.969812615142E+02    0.68100E-05   -0.37235E-05  4600   0.381E-02
  19 F= -.10009410E+03 E0= -.10008919E+03  d E =-.147136E-01
       N       E                     dE             d eps       ncg     rms          rms(c)
DAV:   1    -0.969696261033E+02    0.11642E-01   -0.16873E+00  4688   0.119E+00    0.273E-01
DAV:   2    -0.969708014565E+02   -0.11754E-02   -0.22816E-02  5432   0.155E-01    0.174E-01
DAV:   3    -0.969704714957E+02    0.32996E-03   -0.13045E-03  5544   0.542E-02    0.819E-02
DAV:   4    -0.969705121200E+02   -0.40624E-04   -0.60005E-04  5120   0.706E-02    0.213E-02
DAV:   5    -0.969705186926E+02   -0.65726E-05   -0.16855E-04  5264   0.747E-02    0.183E-02
DAV:   6    -0.969705154904E+02    0.32022E-05   -0.32562E-05  4504   0.404E-02
  20 F= -.10008334E+03 E0= -.10007844E+03  d E =-.146806E-01
       N       E                     dE             d eps       ncg     rms          rms(c)
DAV:   1    -0.969683257268E+02    0.21930E-02   -0.66638E+00  5416   0.241E+00    0.512E-01
DAV:   2    -0.969736097071E+02   -0.52840E-02   -0.93816E-02  5568   0.292E-01    0.337E-01
DAV:   3    -0.969718150630E+02    0.17946E-02   -0.46268E-03  5592   0.101E-01    0.172E-01
DAV:   4    -0.969717894517E+02    0.25611E-04   -0.31700E-03  5144   0.182E-01    0.496E-02
DAV:   5    -0.969717647703E+02    0.24681E-04   -0.85873E-04  5600   0.159E-01    0.303E-02
DAV:   6    -0.969717721699E+02   -0.73996E-05   -0.63353E-05  4632   0.401E-02
  21 F= -.10008459E+03 E0= -.10007971E+03  d E =-.146531E-01
       N       E                     dE             d eps       ncg     rms          rms(c)
DAV:   1    -0.969688187759E+02    0.29460E-02   -0.33336E+00  4928   0.168E+00    0.366E-01
DAV:   2    -0.969716953983E+02   -0.28766E-02   -0.50152E-02  5496   0.222E-01    0.244E-01
DAV:   3    -0.969708055859E+02    0.88981E-03   -0.24720E-03  5608   0.103E-01    0.130E-01
DAV:   4    -0.969709883451E+02   -0.18276E-03   -0.26947E-03  5512   0.284E-01    0.786E-02
DAV:   5    -0.969707454992E+02    0.24285E-03   -0.12154E-03  5656   0.221E-01    0.215E-02
DAV:   6    -0.969707572097E+02   -0.11710E-04   -0.49232E-05  4768   0.159E-02    0.130E-02
DAV:   7    -0.969707564358E+02    0.77390E-06   -0.87965E-06  4216   0.102E-02
  22 F= -.10008358E+03 E0= -.10007870E+03  d E =-.146352E-01
       N       E                     dE             d eps       ncg     rms          rms(c)
DAV:   1    -0.969680672648E+02    0.26899E-02   -0.66624E+00  5512   0.238E+00    0.522E-01
DAV:   2    -0.969734078560E+02   -0.53406E-02   -0.94248E-02  5536   0.282E-01    0.342E-01
DAV:   3    -0.969716403540E+02    0.17675E-02   -0.45142E-03  5584   0.906E-02    0.186E-01
DAV:   4    -0.969714839786E+02    0.15638E-03   -0.32260E-03  5192   0.130E-01    0.439E-02
DAV:   5    -0.969715303901E+02   -0.46411E-04   -0.84866E-04  5504   0.140E-01    0.338E-02
DAV:   6    -0.969715191667E+02    0.11223E-04   -0.14034E-04  5048   0.744E-02    0.185E-02
DAV:   7    -0.969715185498E+02    0.61694E-06   -0.13994E-05  3984   0.176E-02
  23 F= -.10008434E+03 E0= -.10007946E+03  d E =-.146311E-01
       N       E                     dE             d eps       ncg     rms          rms(c)
DAV:   1    -0.969769935687E+02   -0.54744E-02   -0.34006E+00  5072   0.174E+00    0.471E-01
DAV:   2    -0.969787869048E+02   -0.17933E-02   -0.40632E-02  5544   0.200E-01    0.306E-01
DAV:   3    -0.969781170476E+02    0.66986E-03   -0.34591E-03  5584   0.774E-02    0.110E-01
DAV:   4    -0.969781512363E+02   -0.34189E-04   -0.77292E-04  5376   0.565E-02    0.344E-02
DAV:   5    -0.969781803664E+02   -0.29130E-04   -0.16188E-04  5224   0.740E-02    0.228E-02
DAV:   6    -0.969781630767E+02    0.17290E-04   -0.12265E-04  4800   0.804E-02    0.133E-02
DAV:   7    -0.969781612340E+02    0.18427E-05   -0.14299E-05  4200   0.254E-02
  24 F= -.10009040E+03 E0= -.10008542E+03  d E =-.149420E-01
       N       E                     dE             d eps       ncg     rms          rms(c)
DAV:   1    -0.969778398354E+02    0.32324E-03   -0.68923E+00  5104   0.238E+00    0.821E-01
DAV:   2    -0.969788600674E+02   -0.10202E-02   -0.75320E-02  5760   0.285E-01    0.533E-01
DAV:   3    -0.969780892478E+02    0.77082E-03   -0.42250E-03  5792   0.102E-01    0.245E-01
DAV:   4    -0.969781117516E+02   -0.22504E-04   -0.11671E-03  5336   0.506E-02    0.824E-02
DAV:   5    -0.969781513715E+02   -0.39620E-04   -0.29709E-04  5528   0.968E-02    0.266E-02
DAV:   6    -0.969781501862E+02    0.11853E-05   -0.25581E-04  5256   0.117E-01    0.206E-02
DAV:   7    -0.969781346460E+02    0.15540E-04   -0.60888E-05  4600   0.481E-02    0.849E-03
DAV:   8    -0.969781374284E+02   -0.27823E-05   -0.70979E-06  4328   0.913E-03
  25 F= -.10009155E+03 E0= -.10008675E+03  d E =-.143918E-01
