       N       E                     dE             d eps       ncg     rms          rms(c)
DAV:   1     0.296729748903E+04    0.29673E+04   -0.89603E+04  7024   0.230E+03
DAV:   2     0.607048152449E+03   -0.23602E+04   -0.22608E+04  5624   0.760E+02
DAV:   3    -0.691842253049E+01   -0.61397E+03   -0.58557E+03  6656   0.270E+02
DAV:   4    -0.967589142677E+02   -0.89840E+02   -0.86936E+02  7744   0.105E+02
DAV:   5    -0.104268732160E+03   -0.75098E+01   -0.69189E+01  8400   0.289E+01    0.331E+01
DAV:   6    -0.115462786384E+03   -0.11194E+02   -0.18426E+02  8528   0.361E+01    0.374E+01
DAV:   7    -0.100248573873E+03    0.15214E+02   -0.17796E+02  7600   0.379E+01    0.245E+01
DAV:   8    -0.998791960275E+02    0.36938E+00   -0.41543E+01  7680   0.126E+01    0.206E+01
DAV:   9    -0.993993449807E+02    0.47985E+00   -0.19436E+01  8080   0.130E+01    0.133E+01
DAV:  10    -0.960145088217E+02    0.33848E+01   -0.16083E+01  7496   0.124E+01    0.551E+00
DAV:  11    -0.952869159968E+02    0.72759E+00   -0.33907E+00  7920   0.653E+00    0.364E+00
DAV:  12    -0.952008031007E+02    0.86113E-01   -0.70955E-01  7016   0.263E+00    0.218E+00
DAV:  13    -0.951650195514E+02    0.35784E-01   -0.11503E-01  8280   0.125E+00    0.149E+00
DAV:  14    -0.951950391983E+02   -0.30020E-01   -0.29534E-01  7384   0.212E+00    0.208E+00
DAV:  15    -0.951446190187E+02    0.50420E-01   -0.11133E-01  7656   0.165E+00    0.676E-01
DAV:  16    -0.951412577451E+02    0.33613E-02   -0.22229E-02  7528   0.512E-01    0.273E-01
DAV:  17    -0.951417949964E+02   -0.53725E-03   -0.91819E-03  6856   0.482E-01    0.276E-01
DAV:  18    -0.951409214560E+02    0.87354E-03   -0.16660E-03  7608   0.227E-01    0.186E-01
DAV:  19    -0.951405524526E+02    0.36900E-03   -0.13088E-03  7648   0.138E-01    0.444E-02
DAV:  20    -0.951406897651E+02   -0.13731E-03   -0.24853E-04  7480   0.695E-02    0.309E-02
DAV:  21    -0.951410036391E+02   -0.31387E-03   -0.24109E-04  6240   0.727E-02    0.282E-02
DAV:  22    -0.951413981461E+02   -0.39451E-03   -0.13859E-04  5384   0.365E-02    0.148E-02
DAV:  23    -0.951416318636E+02   -0.23372E-03   -0.52575E-05  5808   0.285E-02    0.148E-02
DAV:  24    -0.951418813219E+02   -0.24946E-03   -0.25958E-05  4976   0.277E-02    0.678E-03
DAV:  25    -0.951420248107E+02   -0.14349E-03   -0.69455E-06  4240   0.144E-02    0.513E-03
DAV:  26    -0.951421599352E+02   -0.13512E-03   -0.73359E-06  4352   0.133E-02    0.400E-03
DAV:  27    -0.951422017581E+02   -0.41823E-04   -0.21745E-06  3768   0.113E-02    0.301E-03
DAV:  28    -0.951422162258E+02   -0.14468E-04   -0.15603E-06  3448   0.606E-03    0.144E-03
DAV:  29    -0.951422262790E+02   -0.10053E-04   -0.12106E-06  3688   0.579E-03    0.506E-04
DAV:  30    -0.951422283457E+02   -0.20667E-05   -0.61202E-07  3224   0.442E-03
   1 F= -.98105489E+02 E0= -.98111424E+02  d E =-.981055E+02
       N       E                     dE             d eps       ncg     rms          rms(c)
DAV:   1    -0.951414360572E+02    0.79022E-03   -0.25917E-01  5736   0.172E+00    0.163E-01
DAV:   2    -0.951429902024E+02   -0.15541E-02   -0.18253E-02  6768   0.417E-01    0.104E-01
DAV:   3    -0.951430694543E+02   -0.79252E-04   -0.14018E-03  7608   0.150E-01    0.765E-02
DAV:   4    -0.951431317888E+02   -0.62334E-04   -0.61860E-04  6600   0.115E-01    0.100E-01
DAV:   5    -0.951430533526E+02    0.78436E-04   -0.40385E-04  5904   0.750E-02    0.450E-02
DAV:   6    -0.951430089368E+02    0.44416E-04   -0.23749E-04  5320   0.852E-02    0.174E-02
DAV:   7    -0.951430033682E+02    0.55686E-05   -0.26198E-05  4584   0.255E-02
   2 F= -.98105845E+02 E0= -.98111762E+02  d E =-.355615E-03
       N       E                     dE             d eps       ncg     rms          rms(c)
DAV:   1    -0.951428865401E+02    0.12240E-03   -0.43791E-02  5624   0.705E-01    0.673E-02
DAV:   2    -0.951431505406E+02   -0.26400E-03   -0.31297E-03  6808   0.175E-01    0.435E-02
DAV:   3    -0.951431611836E+02   -0.10643E-04   -0.23049E-04  6896   0.681E-02    0.260E-02
DAV:   4    -0.951431716750E+02   -0.10491E-04   -0.10782E-04  5672   0.641E-02    0.292E-02
DAV:   5    -0.951431557421E+02    0.15933E-04   -0.43809E-05  4792   0.369E-02    0.104E-02
DAV:   6    -0.951431593328E+02   -0.35907E-05   -0.17852E-05  4176   0.175E-02
   3 F= -.98106173E+02 E0= -.98112086E+02  d E =-.684117E-03
       N       E                     dE             d eps       ncg     rms          rms(c)
DAV:   1    -0.951429689347E+02    0.18681E-03   -0.16063E-01  5696   0.148E+00    0.105E-01
DAV:   2    -0.951441537318E+02   -0.11848E-02   -0.13260E-02  6560   0.366E-01    0.572E-02
DAV:   3    -0.951442383925E+02   -0.84661E-04   -0.96882E-04  7760   0.134E-01    0.582E-02
DAV:   4    -0.951442167318E+02    0.21661E-04   -0.18185E-04  5824   0.667E-02    0.426E-02
DAV:   5    -0.951442298395E+02   -0.13108E-04   -0.13983E-04  5472   0.562E-02    0.330E-02
DAV:   6    -0.951442061827E+02    0.23657E-04   -0.11884E-04  4912   0.590E-02    0.121E-02
DAV:   7    -0.951442045980E+02    0.15847E-05   -0.13707E-05  3840   0.223E-02
   4 F= -.98106900E+02 E0= -.98112777E+02  d E =-.726675E-03
       N       E                     dE             d eps       ncg     rms          rms(c)
DAV:   1    -0.951441473399E+02    0.58843E-04   -0.41997E-02  5576   0.756E-01    0.523E-02
DAV:   2    -0.951444567584E+02   -0.30942E-03   -0.34615E-03  6752   0.186E-01    0.289E-02
DAV:   3    -0.951444779439E+02   -0.21186E-04   -0.24992E-04  7144   0.673E-02    0.280E-02
DAV:   4    -0.951444730043E+02    0.49396E-05   -0.43387E-05  4952   0.356E-02
   5 F= -.98107006E+02 E0= -.98112860E+02  d E =-.833023E-03
       N       E                     dE             d eps       ncg     rms          rms(c)
DAV:   1    -0.951445835146E+02   -0.10557E-03   -0.79078E-02  5520   0.980E-01    0.975E-02
DAV:   2    -0.951451695219E+02   -0.58601E-03   -0.57826E-03  6728   0.243E-01    0.896E-02
DAV:   3    -0.951452136219E+02   -0.44100E-04   -0.11040E-03  7080   0.149E-01    0.890E-02
DAV:   4    -0.951451070396E+02    0.10658E-03   -0.26087E-04  5912   0.605E-02    0.232E-02
DAV:   5    -0.951451166384E+02   -0.95988E-05   -0.49457E-05  5192   0.390E-02
   6 F= -.98107470E+02 E0= -.98113306E+02  d E =-.463811E-03
       N       E                     dE             d eps       ncg     rms          rms(c)
DAV:   1    -0.951450773593E+02    0.29680E-04   -0.33301E-02  5488   0.640E-01    0.627E-02
DAV:   2    -0.951453041027E+02   -0.22674E-03   -0.24724E-03  6800   0.158E-01    0.339E-02
DAV:   3    -0.951453253976E+02   -0.21295E-04   -0.17716E-04  6608   0.473E-02    0.324E-02
DAV:   4    -0.951453246452E+02    0.75244E-06   -0.93137E-05  5128   0.416E-02
   7 F= -.98107562E+02 E0= -.98113386E+02  d E =-.555395E-03
       N       E                     dE             d eps       ncg     rms          rms(c)
DAV:   1    -0.951454181437E+02   -0.92746E-04   -0.99307E-03  5384   0.320E-01    0.245E-02
DAV:   2    -0.951454642740E+02   -0.46130E-04   -0.50989E-04  6864   0.781E-02    0.157E-02
DAV:   3    -0.951454686771E+02   -0.44032E-05   -0.43756E-05  5288   0.263E-02
   8 F= -.98107680E+02 E0= -.98113469E+02  d E =-.117852E-03
       N       E                     dE             d eps       ncg     rms          rms(c)
DAV:   1    -0.951454350861E+02    0.29188E-04   -0.89320E-02  5464   0.952E-01    0.760E-02
DAV:   2    -0.951458115765E+02   -0.37649E-03   -0.42591E-03  6872   0.226E-01    0.429E-02
DAV:   3    -0.951458317808E+02   -0.20204E-04   -0.33677E-04  7616   0.953E-02    0.341E-02
DAV:   4    -0.951458286293E+02    0.31515E-05   -0.12584E-04  5832   0.664E-02    0.262E-02
DAV:   5    -0.951458368541E+02   -0.82248E-05   -0.67244E-05  4984   0.339E-02
   9 F= -.98107969E+02 E0= -.98113757E+02  d E =-.407421E-03
