       N       E                     dE             d eps       ncg     rms          rms(c)
DAV:   1     0.511705628521E+03    0.51171E+03   -0.14328E+04  2000   0.906E+02
DAV:   2     0.583002175411E+02   -0.45341E+03   -0.43706E+03  2240   0.261E+02
DAV:   3    -0.678522584990E+02   -0.12615E+03   -0.12130E+03  3776   0.144E+02
DAV:   4    -0.836377080175E+02   -0.15785E+02   -0.15183E+02  3352   0.619E+01
DAV:   5    -0.847372820309E+02   -0.10996E+01   -0.94395E+00  3512   0.151E+01    0.338E+01
RMM:   6    -0.845388922287E+02    0.19839E+00   -0.26290E+01  2315   0.335E+01    0.143E+01
RMM:   7    -0.906266355185E+02   -0.60877E+01   -0.30462E+01  2723   0.251E+01    0.149E+01
RMM:   8    -0.787480043169E+02    0.11879E+02   -0.10950E+01  2486   0.178E+01    0.666E+00
RMM:   9    -0.776960551607E+02    0.10519E+01   -0.20076E+00  2363   0.856E+00    0.509E+00
RMM:  10    -0.774466864661E+02    0.24937E+00   -0.21428E+00  2700   0.656E+00    0.389E+00
RMM:  11    -0.773311701458E+02    0.11552E+00   -0.60400E-01  2602   0.373E+00    0.194E+00
RMM:  12    -0.772476517028E+02    0.83518E-01   -0.14392E-01  2595   0.201E+00    0.610E-01
RMM:  13    -0.772544043754E+02   -0.67527E-02   -0.37426E-02  2514   0.109E+00    0.654E-01
RMM:  14    -0.772432067891E+02    0.11198E-01   -0.17422E-02  2696   0.591E-01    0.188E-01
RMM:  15    -0.772440298951E+02   -0.82311E-03   -0.15259E-02  2763   0.479E-01    0.141E-01
RMM:  16    -0.772445949938E+02   -0.56510E-03   -0.22133E-03  2681   0.221E-01    0.170E-01
RMM:  17    -0.772442072101E+02    0.38778E-03   -0.16658E-03  2540   0.205E-01    0.375E-02
RMM:  18    -0.772444334478E+02   -0.22624E-03   -0.62668E-04  2447   0.824E-02    0.280E-02
RMM:  19    -0.772446445147E+02   -0.21107E-03   -0.18893E-04  2224   0.639E-02    0.407E-02
RMM:  20    -0.772447382612E+02   -0.93747E-04   -0.76826E-05  1742   0.392E-02    0.152E-02
RMM:  21    -0.772449792636E+02   -0.24100E-03   -0.10689E-04  2001   0.507E-02    0.280E-02
RMM:  22    -0.772451696496E+02   -0.19039E-03   -0.27687E-05  1442   0.350E-02    0.124E-02
RMM:  23    -0.772452471943E+02   -0.77545E-04   -0.98644E-06  1270   0.261E-02    0.707E-03
RMM:  24    -0.772453259345E+02   -0.78740E-04   -0.88141E-06  1260   0.161E-02    0.389E-03
RMM:  25    -0.772453735981E+02   -0.47664E-04   -0.58988E-06  1255   0.169E-02    0.332E-03
RMM:  26    -0.772453785730E+02   -0.49749E-05   -0.25428E-06  1218   0.135E-02
   1 F= -.80367603E+02 E0= -.80358470E+02  d E =-.803676E+02
       N       E                     dE             d eps       ncg     rms          rms(c)
DAV:   1     0.441728730234E+02    0.12142E+03   -0.15510E+03  2304   0.176E+02    0.864E+01
RMM:   2     0.259604607303E+02   -0.18212E+02   -0.21753E+02  2785   0.674E+01    0.792E+01
RMM:   3     0.689994408162E+01   -0.19061E+02   -0.73717E+01  2631   0.406E+01    0.109E+02
RMM:   4     0.256255697908E+02    0.18726E+02   -0.45093E+01  2357   0.467E+01    0.941E+00
RMM:   5     0.312345944859E+02    0.56090E+01   -0.10096E+01  2497   0.182E+01    0.190E+01
RMM:   6     0.318981088879E+02    0.66351E+00   -0.23666E+00  2487   0.724E+00    0.127E+01
RMM:   7     0.322490260750E+02    0.35092E+00   -0.11549E+00  2549   0.475E+00    0.449E+00
RMM:   8     0.323243022023E+02    0.75276E-01   -0.68476E-01  2734   0.320E+00    0.966E-01
RMM:   9     0.323193556327E+02   -0.49466E-02   -0.17793E-01  2754   0.156E+00    0.554E-01
RMM:  10     0.323263559629E+02    0.70003E-02   -0.44816E-02  2329   0.117E+00    0.793E-01
RMM:  11     0.323246462394E+02   -0.17097E-02   -0.20675E-02  2687   0.473E-01    0.244E-01
RMM:  12     0.323245863607E+02   -0.59879E-04   -0.89283E-03  2704   0.358E-01    0.742E-01
RMM:  13     0.323248044222E+02    0.21806E-03   -0.23035E-03  2772   0.177E-01    0.507E-01
RMM:  14     0.323250761771E+02    0.27175E-03   -0.13310E-03  2471   0.196E-01    0.288E-01
RMM:  15     0.323250158065E+02   -0.60371E-04   -0.85610E-04  2595   0.104E-01    0.319E-01
RMM:  16     0.323248387640E+02   -0.17704E-03   -0.50948E-04  2413   0.814E-02    0.823E-02
RMM:  17     0.323247075068E+02   -0.13126E-03   -0.17526E-04  2061   0.497E-02    0.155E-02
RMM:  18     0.323246856290E+02   -0.21878E-04   -0.10261E-04  1877   0.625E-02    0.142E-02
RMM:  19     0.323246433598E+02   -0.42269E-04   -0.42220E-05  1564   0.294E-02    0.196E-02
RMM:  20     0.323246075728E+02   -0.35787E-04   -0.24616E-05  1455   0.458E-02    0.211E-02
RMM:  21     0.323245878988E+02   -0.19674E-04   -0.93794E-06  1259   0.233E-02    0.241E-02
RMM:  22     0.323245737592E+02   -0.14140E-04   -0.88250E-06  1246   0.207E-02    0.131E-02
RMM:  23     0.323245700458E+02   -0.37134E-05   -0.64228E-06  1240   0.188E-02
   2 F= 0.29121225E+02 E0= 0.29130956E+02  d E =0.109489E+03
       N       E                     dE             d eps       ncg     rms          rms(c)
DAV:   1    -0.826175446791E+02   -0.11494E+03   -0.14399E+03  2472   0.138E+02    0.841E+01
RMM:   2    -0.723963538868E+02    0.10221E+02   -0.22769E+02  3265   0.795E+01    0.493E+01
RMM:   3    -0.138739296010E+03   -0.66343E+02   -0.30599E+02  2878   0.793E+01    0.408E+01
RMM:   4    -0.850627081555E+02    0.53677E+02   -0.51181E+01  2313   0.486E+01    0.225E+01
RMM:   5    -0.800435042014E+02    0.50192E+01   -0.20928E+01  3113   0.180E+01    0.136E+01
RMM:   6    -0.793252226574E+02    0.71828E+00   -0.37524E+01  2585   0.224E+01    0.620E+00
RMM:   7    -0.787780766560E+02    0.54715E+00   -0.60788E+00  2734   0.112E+01    0.322E+00
RMM:   8    -0.795424290883E+02   -0.76435E+00   -0.12539E+01  3175   0.939E+00    0.506E+00
RMM:   9    -0.794598123248E+02    0.82617E-01   -0.45631E+00  3078   0.458E+00    0.409E+00
RMM:  10    -0.800855978616E+02   -0.62579E+00   -0.45844E+00  3308   0.285E+00    0.503E+00
RMM:  11    -0.799054430549E+02    0.18015E+00   -0.36709E+00  3040   0.433E+00    0.374E+00
RMM:  12    -0.796027567977E+02    0.30269E+00   -0.19011E+00  3026   0.375E+00    0.339E+00
RMM:  13    -0.794882655435E+02    0.11449E+00   -0.31061E-01  3106   0.152E+00    0.315E+00
RMM:  14    -0.792530750261E+02    0.23519E+00   -0.32115E-01  2919   0.181E+00    0.215E+00
RMM:  15    -0.792103744505E+02    0.42701E-01   -0.20381E-01  3062   0.109E+00    0.158E+00
RMM:  16    -0.791866168441E+02    0.23758E-01   -0.84433E-02  3090   0.719E-01    0.125E+00
RMM:  17    -0.791669459200E+02    0.19671E-01   -0.66151E-02  3091   0.622E-01    0.948E-01
RMM:  18    -0.791418696640E+02    0.25076E-01   -0.14315E-01  3111   0.971E-01    0.402E-01
RMM:  19    -0.791455036938E+02   -0.36340E-02   -0.66902E-02  3116   0.539E-01    0.205E-01
RMM:  20    -0.791475402844E+02   -0.20366E-02   -0.26705E-02  3097   0.370E-01    0.870E-02
RMM:  21    -0.791522978487E+02   -0.47576E-02   -0.38888E-02  3118   0.439E-01    0.168E-01
RMM:  22    -0.791529609725E+02   -0.66312E-03   -0.73920E-03  3007   0.213E-01    0.189E-01
RMM:  23    -0.791521763981E+02    0.78457E-03   -0.33290E-03  2698   0.159E-01    0.138E-01
RMM:  24    -0.791519003834E+02    0.27601E-03   -0.12896E-03  2532   0.856E-02    0.118E-01
RMM:  25    -0.791516588129E+02    0.24157E-03   -0.47788E-04  2314   0.685E-02    0.101E-01
RMM:  26    -0.791512054303E+02    0.45338E-03   -0.14735E-03  2978   0.128E-01    0.506E-02
RMM:  27    -0.791515768882E+02   -0.37146E-03   -0.30002E-03  3129   0.149E-01    0.743E-02
RMM:  28    -0.791514274853E+02    0.14940E-03   -0.28030E-04  2339   0.694E-02    0.547E-02
RMM:  29    -0.791513172175E+02    0.11027E-03   -0.28843E-04  2368   0.643E-02    0.999E-03
RMM:  30    -0.791513454650E+02   -0.28248E-04   -0.36130E-05  1524   0.332E-02    0.180E-02
RMM:  31    -0.791513467125E+02   -0.12475E-05   -0.67445E-06  1261   0.231E-02
   3 F= -.82278948E+02 E0= -.82271099E+02  d E =-.191134E+01
       N       E                     dE             d eps       ncg     rms          rms(c)
DAV:   1    -0.795649046363E+02   -0.41356E+00   -0.35449E+00  2472   0.732E+00    0.248E+00
RMM:   2    -0.795953711856E+02   -0.30467E-01   -0.26660E-01  2596   0.306E+00    0.183E+00
RMM:   3    -0.796210343500E+02   -0.25663E-01   -0.11965E-01  2435   0.190E+00    0.150E+00
RMM:   4    -0.795781135501E+02    0.42921E-01   -0.61525E-02  2361   0.149E+00    0.599E-01
RMM:   5    -0.795598830720E+02    0.18230E-01   -0.15685E-02  2187   0.103E+00    0.970E-02
RMM:   6    -0.795603886800E+02   -0.50561E-03   -0.88015E-03  2698   0.301E-01    0.453E-02
RMM:   7    -0.795604402207E+02   -0.51541E-04   -0.13585E-03  2659   0.131E-01    0.317E-02
RMM:   8    -0.795604389227E+02    0.12981E-05   -0.28892E-04  2277   0.640E-02    0.198E-02
RMM:   9    -0.795604347269E+02    0.41958E-05   -0.10779E-04  1859   0.468E-02    0.685E-03
RMM:  10    -0.795604425404E+02   -0.78135E-05   -0.33969E-05  1476   0.319E-02
   4 F= -.82690305E+02 E0= -.82682926E+02  d E =-.232270E+01
       N       E                     dE             d eps       ncg     rms          rms(c)
DAV:   1    -0.797727192670E+02   -0.21228E+00   -0.57576E+00  2008   0.940E+00    0.272E+00
RMM:   2    -0.798027924415E+02   -0.30073E-01   -0.36169E-01  2579   0.374E+00    0.194E+00
RMM:   3    -0.798494074236E+02   -0.46615E-01   -0.14966E-01  2409   0.224E+00    0.152E+00
RMM:   4    -0.797885127273E+02    0.60895E-01   -0.80371E-02  2373   0.164E+00    0.563E-01
RMM:   5    -0.797716884067E+02    0.16824E-01   -0.19635E-02  2187   0.108E+00    0.992E-02
RMM:   6    -0.797722775404E+02   -0.58913E-03   -0.10978E-02  2746   0.349E-01    0.584E-02
RMM:   7    -0.797722447508E+02    0.32790E-04   -0.15570E-03  2665   0.175E-01    0.385E-02
RMM:   8    -0.797722286242E+02    0.16127E-04   -0.38307E-04  2496   0.879E-02    0.239E-02
RMM:   9    -0.797722236567E+02    0.49674E-05   -0.14008E-04  2081   0.478E-02    0.104E-02
RMM:  10    -0.797722353789E+02   -0.11722E-04   -0.36385E-05  1542   0.351E-02    0.508E-03
RMM:  11    -0.797722503878E+02   -0.15009E-04   -0.10433E-05  1249   0.262E-02    0.371E-03
RMM:  12    -0.797722803221E+02   -0.29934E-04   -0.91487E-06  1242   0.207E-02    0.275E-03
RMM:  13    -0.797723033865E+02   -0.23064E-04   -0.68802E-06  1245   0.202E-02    0.250E-03
RMM:  14    -0.797723229441E+02   -0.19558E-04   -0.60002E-06  1249   0.157E-02    0.272E-03
RMM:  15    -0.797723378948E+02   -0.14951E-04   -0.52333E-06  1255   0.148E-02    0.130E-03
RMM:  16    -0.797723473052E+02   -0.94104E-05   -0.38114E-06  1245   0.128E-02
   5 F= -.82905122E+02 E0= -.82898223E+02  d E =-.253752E+01
       N       E                     dE             d eps       ncg     rms          rms(c)
DAV:   1    -0.605907957096E+02    0.19182E+02   -0.91099E+02  2368   0.137E+02    0.161E+01
RMM:   2    -0.691909924656E+02   -0.86002E+01   -0.16515E+02  3090   0.542E+01    0.961E+00
RMM:   3    -0.708971821399E+02   -0.17062E+01   -0.37383E+01  3134   0.229E+01    0.128E+01
RMM:   4    -0.699644419349E+02    0.93274E+00   -0.74134E+00  3310   0.146E+01    0.117E+01
RMM:   5    -0.679396665295E+02    0.20248E+01   -0.89111E+00  3143   0.884E+00    0.115E+01
RMM:   6    -0.680805392218E+02   -0.14087E+00   -0.15455E+01  3199   0.863E+00    0.593E+00
RMM:   7    -0.713227055094E+02   -0.32422E+01   -0.21146E+01  3036   0.834E+00    0.106E+01
RMM:   8    -0.745779593244E+02   -0.32553E+01   -0.28438E+01  3164   0.113E+01    0.114E+01
RMM:   9    -0.804396634515E+02   -0.58617E+01   -0.21807E+01  3312   0.846E+00    0.192E+01
RMM:  10    -0.805138257169E+02   -0.74162E-01   -0.32696E+00  3305   0.368E+00    0.199E+01
RMM:  11    -0.772536128426E+02    0.32602E+01   -0.14185E+00  2856   0.279E+00    0.179E+01
RMM:  12    -0.709996805486E+02    0.62539E+01   -0.14673E+01  3135   0.716E+00    0.673E+00
RMM:  13    -0.718162783567E+02   -0.81660E+00   -0.14469E+00  2800   0.438E+00    0.940E+00
RMM:  14    -0.719167747892E+02   -0.10050E+00   -0.14207E-01  2862   0.119E+00    0.979E+00
RMM:  15    -0.715904174432E+02    0.32636E+00   -0.10206E-01  2791   0.931E-01    0.934E+00
RMM:  16    -0.715067704917E+02    0.83647E-01   -0.42120E-02  3138   0.546E-01    0.926E+00
RMM:  17    -0.716068978415E+02   -0.10013E+00   -0.38768E-02  2812   0.767E-01    0.103E+01
RMM:  18    -0.715455372340E+02    0.61361E-01   -0.59117E-02  2862   0.110E+00    0.116E+01
RMM:  19    -0.715822615381E+02   -0.36724E-01   -0.52753E-03  2490   0.337E-01    0.114E+01
RMM:  20    -0.716728783099E+02   -0.90617E-01   -0.25317E-02  3061   0.547E-01    0.122E+01
RMM:  21    -0.716189402523E+02    0.53938E-01   -0.22047E-03  2436   0.204E-01    0.120E+01
RMM:  22    -0.711251478292E+02    0.49379E+00   -0.53009E-01  3540   0.224E+00    0.750E+00
RMM:  23    -0.709290783617E+02    0.19607E+00   -0.97061E-01  3552   0.205E+00    0.312E+00
RMM:  24    -0.709035334549E+02    0.25545E-01   -0.10538E-01  3402   0.805E-01    0.239E+00
RMM:  25    -0.709047193237E+02   -0.11859E-02   -0.24187E-02  3358   0.316E-01    0.239E+00
RMM:  26    -0.709120155716E+02   -0.72962E-02   -0.11300E-02  3138   0.366E-01    0.263E+00
RMM:  27    -0.709688160024E+02   -0.56800E-01   -0.13265E-01  3378   0.725E-01    0.318E+00
RMM:  28    -0.708993144051E+02    0.69502E-01   -0.12907E-01  3378   0.826E-01    0.120E+00
RMM:  29    -0.709139145322E+02   -0.14600E-01   -0.11376E-02  2836   0.355E-01    0.176E+00
RMM:  30    -0.708933676240E+02    0.20547E-01   -0.14092E-02  3133   0.284E-01    0.105E+00
RMM:  31    -0.708922241123E+02    0.11435E-02   -0.22336E-03  2934   0.148E-01    0.999E-01
RMM:  32    -0.708920070516E+02    0.21706E-03   -0.46350E-03  3066   0.183E-01    0.776E-01
RMM:  33    -0.708887990252E+02    0.32080E-02   -0.16968E-02  3269   0.281E-01    0.132E-01
RMM:  34    -0.708891849296E+02   -0.38590E-03   -0.28446E-03  3122   0.139E-01    0.581E-02
RMM:  35    -0.708894293549E+02   -0.24443E-03   -0.10855E-03  2715   0.802E-02    0.132E-01
RMM:  36    -0.708894086276E+02    0.20727E-04   -0.12723E-04  2014   0.561E-02    0.101E-01
RMM:  37    -0.708893117293E+02    0.96898E-04   -0.71680E-05  1744   0.454E-02    0.608E-02
RMM:  38    -0.708893417279E+02   -0.29999E-04   -0.17652E-04  1819   0.414E-02    0.797E-02
RMM:  39    -0.708893515960E+02   -0.98681E-05   -0.23489E-05  1436   0.391E-02
   6 F= -.74074429E+02 E0= -.74067021E+02  d E =0.883069E+01
       N       E                     dE             d eps       ncg     rms          rms(c)
DAV:   1    -0.753845142716E+02   -0.44952E+01   -0.35698E+02  2120   0.823E+01    0.784E+00
RMM:   2    -0.780625670564E+02   -0.26781E+01   -0.24293E+01  2596   0.266E+01    0.923E+00
RMM:   3    -0.773401012964E+02    0.72247E+00   -0.26932E+00  2510   0.852E+00    0.293E+00
RMM:   4    -0.771524932622E+02    0.18761E+00   -0.95127E-01  2533   0.466E+00    0.216E+00
RMM:   5    -0.770380755388E+02    0.11442E+00   -0.21469E-01  2438   0.290E+00    0.176E+00
RMM:   6    -0.770297776526E+02    0.82979E-02   -0.19642E-01  2706   0.174E+00    0.138E+00
RMM:   7    -0.770139272918E+02    0.15850E-01   -0.42041E-02  2688   0.739E-01    0.115E+00
RMM:   8    -0.769931114704E+02    0.20816E-01   -0.51052E-02  2460   0.113E+00    0.399E-01
RMM:   9    -0.769927227598E+02    0.38871E-03   -0.86162E-03  2598   0.472E-01    0.278E-01
RMM:  10    -0.769921599227E+02    0.56284E-03   -0.33094E-03  2785   0.208E-01    0.108E-01
RMM:  11    -0.769924109227E+02   -0.25100E-03   -0.36962E-03  2561   0.300E-01    0.108E-01
RMM:  12    -0.769923458844E+02    0.65038E-04   -0.90099E-04  2679   0.101E-01    0.840E-02
RMM:  13    -0.769922437749E+02    0.10211E-03   -0.18966E-04  2226   0.794E-02    0.427E-02
RMM:  14    -0.769923424557E+02   -0.98681E-04   -0.23764E-04  2379   0.711E-02    0.139E-02
RMM:  15    -0.769924341688E+02   -0.91713E-04   -0.41232E-05  1584   0.284E-02    0.938E-03
RMM:  16    -0.769925562932E+02   -0.12212E-03   -0.23206E-05  1394   0.364E-02    0.839E-03
RMM:  17    -0.769926537347E+02   -0.97442E-04   -0.42029E-05  1562   0.292E-02    0.593E-03
RMM:  18    -0.769926933649E+02   -0.39630E-04   -0.16591E-05  1315   0.333E-02    0.714E-03
RMM:  19    -0.769927163359E+02   -0.22971E-04   -0.99573E-06  1273   0.207E-02    0.262E-03
RMM:  20    -0.769927226492E+02   -0.63133E-05   -0.43766E-06  1228   0.154E-02
   7 F= -.80152687E+02 E0= -.80147828E+02  d E =0.275243E+01
       N       E                     dE             d eps       ncg     rms          rms(c)
DAV:   1    -0.794222058364E+02   -0.24295E+01   -0.12590E+02  2032   0.473E+01    0.400E+00
RMM:   2    -0.798988343205E+02   -0.47663E+00   -0.55209E+00  2657   0.123E+01    0.215E+00
RMM:   3    -0.799875532366E+02   -0.88719E-01   -0.67142E-01  2530   0.440E+00    0.161E+00
RMM:   4    -0.798791544666E+02    0.10840E+00   -0.25340E-01  2537   0.271E+00    0.865E-01
RMM:   5    -0.798601492272E+02    0.19005E-01   -0.56239E-02  2555   0.133E+00    0.618E-01
RMM:   6    -0.798558694403E+02    0.42798E-02   -0.28240E-02  2707   0.786E-01    0.263E-01
RMM:   7    -0.798540794653E+02    0.17900E-02   -0.57582E-03  2716   0.349E-01    0.112E-01
RMM:   8    -0.798538588295E+02    0.22064E-03   -0.15974E-03  2672   0.203E-01    0.529E-02
RMM:   9    -0.798538041392E+02    0.54690E-04   -0.46236E-04  2554   0.117E-01    0.262E-02
RMM:  10    -0.798538188881E+02   -0.14749E-04   -0.21730E-04  2328   0.698E-02    0.122E-02
RMM:  11    -0.798538893826E+02   -0.70495E-04   -0.79729E-05  1750   0.479E-02    0.947E-03
RMM:  12    -0.798540410681E+02   -0.15169E-03   -0.57304E-05  1622   0.382E-02    0.524E-03
RMM:  13    -0.798541479866E+02   -0.10692E-03   -0.24959E-05  1391   0.333E-02    0.386E-03
RMM:  14    -0.798542520088E+02   -0.10402E-03   -0.26241E-05  1410   0.298E-02    0.338E-03
RMM:  15    -0.798543065594E+02   -0.54551E-04   -0.12982E-05  1319   0.242E-02    0.171E-03
RMM:  16    -0.798543306884E+02   -0.24129E-04   -0.80477E-06  1260   0.179E-02    0.119E-03
RMM:  17    -0.798543529859E+02   -0.22297E-04   -0.51926E-06  1232   0.157E-02    0.133E-03
RMM:  18    -0.798543649404E+02   -0.11955E-04   -0.35218E-06  1224   0.133E-02    0.115E-03
RMM:  19    -0.798543663719E+02   -0.14314E-05   -0.18327E-06  1203   0.110E-02
   8 F= -.83002702E+02 E0= -.82996959E+02  d E =-.975797E-01
       N       E                     dE             d eps       ncg     rms          rms(c)
DAV:   1    -0.806884636657E+02   -0.83410E+00   -0.63728E+01  2016   0.335E+01    0.342E+00
RMM:   2    -0.809018493885E+02   -0.21339E+00   -0.26389E+00  2643   0.867E+00    0.169E+00
RMM:   3    -0.809604028575E+02   -0.58553E-01   -0.36023E-01  2487   0.330E+00    0.129E+00
RMM:   4    -0.808894417015E+02    0.70961E-01   -0.14257E-01  2554   0.215E+00    0.659E-01
RMM:   5    -0.808788164405E+02    0.10625E-01   -0.33047E-02  2647   0.937E-01    0.321E-01
RMM:   6    -0.808776346287E+02    0.11818E-02   -0.84911E-03  2577   0.537E-01    0.204E-01
RMM:   7    -0.808770617145E+02    0.57291E-03   -0.38994E-03  2737   0.297E-01    0.886E-02
RMM:   8    -0.808769084934E+02    0.15322E-03   -0.75504E-04  2658   0.135E-01    0.437E-02
RMM:   9    -0.808768722953E+02    0.36198E-04   -0.41133E-04  2417   0.124E-01    0.323E-02
RMM:  10    -0.808768839888E+02   -0.11693E-04   -0.11033E-04  1956   0.530E-02    0.178E-02
RMM:  11    -0.808769538908E+02   -0.69902E-04   -0.90503E-05  1896   0.561E-02    0.104E-02
RMM:  12    -0.808770571750E+02   -0.10328E-03   -0.30672E-05  1442   0.319E-02    0.595E-03
RMM:  13    -0.808771726296E+02   -0.11545E-03   -0.33755E-05  1492   0.315E-02    0.463E-03
RMM:  14    -0.808772370594E+02   -0.64430E-04   -0.15148E-05  1328   0.272E-02    0.314E-03
RMM:  15    -0.808773054540E+02   -0.68395E-04   -0.14741E-05  1311   0.198E-02    0.245E-03
RMM:  16    -0.808773293407E+02   -0.23887E-04   -0.67514E-06  1261   0.201E-02    0.222E-03
RMM:  17    -0.808773392717E+02   -0.99309E-05   -0.37537E-06  1221   0.122E-02
   9 F= -.84017279E+02 E0= -.84010850E+02  d E =-.111216E+01
       N       E                     dE             d eps       ncg     rms          rms(c)
DAV:   1    -0.808904999281E+02   -0.13171E-01   -0.17454E+00  2352   0.537E+00    0.570E-01
RMM:   2    -0.808945903566E+02   -0.40904E-02   -0.64322E-02  2715   0.131E+00    0.327E-01
RMM:   3    -0.808944346952E+02    0.15566E-03   -0.10627E-02  2670   0.444E-01    0.155E-01
RMM:   4    -0.808948920115E+02   -0.45732E-03   -0.43773E-03  2669   0.306E-01    0.154E-01
RMM:   5    -0.808937980051E+02    0.10940E-02   -0.71680E-04  2286   0.181E-01    0.623E-02
RMM:   6    -0.808938115036E+02   -0.13499E-04   -0.54178E-04  2523   0.988E-02    0.319E-02
RMM:   7    -0.808938017405E+02    0.97631E-05   -0.14237E-04  2072   0.573E-02    0.148E-02
RMM:   8    -0.808937992376E+02    0.25029E-05   -0.19117E-05  1331   0.424E-02
  10 F= -.84032483E+02 E0= -.84025961E+02  d E =-.112736E+01
       N       E                     dE             d eps       ncg     rms          rms(c)
DAV:   1    -0.808948845685E+02   -0.10828E-02   -0.10240E-01  2424   0.129E+00    0.134E-01
RMM:   2    -0.808950687125E+02   -0.18414E-03   -0.32576E-03  2689   0.319E-01    0.807E-02
RMM:   3    -0.808951138769E+02   -0.45164E-04   -0.79488E-04  2351   0.114E-01    0.370E-02
RMM:   4    -0.808951193353E+02   -0.54584E-05   -0.23374E-04  2138   0.742E-02    0.344E-02
RMM:   5    -0.808950833817E+02    0.35954E-04   -0.34418E-05  1547   0.491E-02    0.160E-02
RMM:   6    -0.808950904053E+02   -0.70235E-05   -0.19336E-05  1354   0.293E-02
  11 F= -.84034074E+02 E0= -.84027567E+02  d E =-.112895E+01
       N       E                     dE             d eps       ncg     rms          rms(c)
DAV:   1    -0.804737883035E+02    0.42130E+00   -0.11655E+02  2048   0.460E+01    0.506E+00
RMM:   2    -0.810034221076E+02   -0.52963E+00   -0.66799E+00  2752   0.141E+01    0.364E+00
RMM:   3    -0.810303282407E+02   -0.26906E-01   -0.83743E-01  2546   0.522E+00    0.254E+00
RMM:   4    -0.809653919487E+02    0.64936E-01   -0.32774E-01  2504   0.340E+00    0.166E+00
RMM:   5    -0.809082385289E+02    0.57153E-01   -0.12693E-01  2378   0.219E+00    0.638E-01
RMM:   6    -0.809016270903E+02    0.66114E-02   -0.42959E-02  2473   0.118E+00    0.204E-01
RMM:   7    -0.809022200978E+02   -0.59301E-03   -0.20437E-02  2770   0.577E-01    0.123E-01
RMM:   8    -0.809022844680E+02   -0.64370E-04   -0.43068E-03  2795   0.216E-01    0.871E-02
RMM:   9    -0.809022449727E+02    0.39495E-04   -0.15944E-03  2751   0.153E-01    0.425E-02
RMM:  10    -0.809022360942E+02    0.88784E-05   -0.35339E-04  2502   0.732E-02    0.295E-02
RMM:  11    -0.809022415760E+02   -0.54817E-05   -0.19088E-04  2154   0.594E-02    0.123E-02
RMM:  12    -0.809022751604E+02   -0.33584E-04   -0.31950E-05  1483   0.339E-02    0.774E-03
RMM:  13    -0.809023369417E+02   -0.61781E-04   -0.57867E-05  1530   0.401E-02    0.152E-02
RMM:  14    -0.809023956601E+02   -0.58718E-04   -0.28813E-05  1439   0.329E-02    0.360E-03
RMM:  15    -0.809024313010E+02   -0.35641E-04   -0.22058E-05  1384   0.256E-02    0.410E-03
RMM:  16    -0.809024460745E+02   -0.14774E-04   -0.64987E-06  1238   0.219E-02    0.406E-03
RMM:  17    -0.809024800288E+02   -0.33954E-04   -0.96890E-06  1287   0.187E-02    0.351E-03
RMM:  18    -0.809024908826E+02   -0.10854E-04   -0.48709E-06  1242   0.167E-02    0.116E-03
RMM:  19    -0.809024952425E+02   -0.43599E-05   -0.28714E-06  1201   0.103E-02
  12 F= -.84058130E+02 E0= -.84052118E+02  d E =-.240562E-01
       N       E                     dE             d eps       ncg     rms          rms(c)
DAV:   1    -0.810391496636E+02   -0.13666E+00   -0.30777E+01  2000   0.226E+01    0.255E+00
RMM:   2    -0.811203152915E+02   -0.81166E-01   -0.11174E+00  2738   0.627E+00    0.133E+00
RMM:   3    -0.811624001236E+02   -0.42085E-01   -0.31683E-01  2753   0.258E+00    0.931E-01
RMM:   4    -0.811358062607E+02    0.26594E-01   -0.83332E-02  2559   0.147E+00    0.627E-01
RMM:   5    -0.811290898618E+02    0.67164E-02   -0.30966E-02  2556   0.990E-01    0.279E-01
RMM:   6    -0.811273946906E+02    0.16952E-02   -0.70827E-03  2317   0.595E-01    0.133E-01
RMM:   7    -0.811272656150E+02    0.12908E-03   -0.36793E-03  2741   0.225E-01    0.531E-02
RMM:   8    -0.811273967121E+02   -0.13110E-03   -0.10545E-03  2706   0.121E-01    0.239E-02
RMM:   9    -0.811274562339E+02   -0.59522E-04   -0.19451E-04  2253   0.582E-02    0.129E-02
RMM:  10    -0.811275102899E+02   -0.54056E-04   -0.57058E-05  1726   0.437E-02    0.816E-03
RMM:  11    -0.811275461579E+02   -0.35868E-04   -0.18975E-05  1336   0.299E-02    0.461E-03
RMM:  12    -0.811275840812E+02   -0.37923E-04   -0.12950E-05  1262   0.251E-02    0.337E-03
RMM:  13    -0.811276228782E+02   -0.38797E-04   -0.97759E-06  1266   0.217E-02    0.292E-03
RMM:  14    -0.811276528805E+02   -0.30002E-04   -0.93504E-06  1264   0.195E-02    0.238E-03
RMM:  15    -0.811276663079E+02   -0.13427E-04   -0.55861E-06  1238   0.179E-02    0.219E-03
RMM:  16    -0.811276722114E+02   -0.59035E-05   -0.37471E-06  1226   0.128E-02
  13 F= -.84274356E+02 E0= -.84268316E+02  d E =-.240282E+00
       N       E                     dE             d eps       ncg     rms          rms(c)
DAV:   1    -0.812028562525E+02   -0.75190E-01   -0.42111E+00  2000   0.865E+00    0.762E-01
RMM:   2    -0.812175256273E+02   -0.14669E-01   -0.19052E-01  2396   0.317E+00    0.587E-01
RMM:   3    -0.812233930127E+02   -0.58674E-02   -0.84536E-02  2689   0.122E+00    0.470E-01
RMM:   4    -0.812208990816E+02    0.24939E-02   -0.93754E-03  2604   0.488E-01    0.366E-01
RMM:   5    -0.812204627413E+02    0.43634E-03   -0.77689E-03  2510   0.439E-01    0.208E-01
RMM:   6    -0.812202584765E+02    0.20426E-03   -0.13099E-03  2337   0.243E-01    0.140E-01
RMM:   7    -0.812198974493E+02    0.36103E-03   -0.21294E-03  2659   0.199E-01    0.299E-02
RMM:   8    -0.812198852580E+02    0.12191E-04   -0.22211E-04  2180   0.677E-02    0.147E-02
RMM:   9    -0.812198843343E+02    0.92369E-06   -0.64084E-05  1665   0.485E-02
  14 F= -.84366491E+02 E0= -.84359951E+02  d E =-.921347E-01
       N       E                     dE             d eps       ncg     rms          rms(c)
DAV:   1    -0.812028526842E+02    0.17033E-01   -0.26801E+01  2000   0.218E+01    0.198E+00
RMM:   2    -0.813363180615E+02   -0.13347E+00   -0.16046E+00  2418   0.812E+00    0.151E+00
RMM:   3    -0.813466415030E+02   -0.10323E-01   -0.33971E-01  2705   0.271E+00    0.118E+00
RMM:   4    -0.813283212659E+02    0.18320E-01   -0.56872E-02  2646   0.121E+00    0.918E-01
RMM:   5    -0.813261561185E+02    0.21651E-02   -0.47147E-02  2501   0.104E+00    0.482E-01
RMM:   6    -0.813238997985E+02    0.22563E-02   -0.57396E-03  2286   0.552E-01    0.278E-01
RMM:   7    -0.813231443733E+02    0.75543E-03   -0.12017E-02  2584   0.497E-01    0.111E-01
RMM:   8    -0.813227863658E+02    0.35801E-03   -0.15220E-03  2620   0.180E-01    0.408E-02
RMM:   9    -0.813228330991E+02   -0.46733E-04   -0.98884E-04  2539   0.129E-01    0.465E-02
RMM:  10    -0.813227917145E+02    0.41385E-04   -0.11412E-04  1998   0.478E-02    0.248E-02
RMM:  11    -0.813227970160E+02   -0.53015E-05   -0.14074E-04  1762   0.542E-02    0.816E-03
RMM:  12    -0.813227981172E+02   -0.11012E-05   -0.12960E-05  1261   0.279E-02
  15 F= -.84469764E+02 E0= -.84462109E+02  d E =-.195408E+00
       N       E                     dE             d eps       ncg     rms          rms(c)
DAV:   1    -0.813265739468E+02   -0.37769E-02   -0.36116E+00  2000   0.736E+00    0.718E-01
RMM:   2    -0.813392887165E+02   -0.12715E-01   -0.16157E-01  2608   0.257E+00    0.578E-01
RMM:   3    -0.813378697798E+02    0.14189E-02   -0.36153E-02  2494   0.995E-01    0.405E-01
RMM:   4    -0.813358076866E+02    0.20621E-02   -0.87258E-03  2579   0.485E-01    0.261E-01
RMM:   5    -0.813348676597E+02    0.94003E-03   -0.42134E-03  2460   0.358E-01    0.108E-01
RMM:   6    -0.813345560774E+02    0.31158E-03   -0.10386E-03  2310   0.216E-01    0.378E-02
RMM:   7    -0.813345687974E+02   -0.12720E-04   -0.56945E-04  2442   0.908E-02    0.200E-02
RMM:   8    -0.813345739860E+02   -0.51886E-05   -0.11634E-04  1878   0.580E-02    0.133E-02
RMM:   9    -0.813345799681E+02   -0.59821E-05   -0.36379E-05  1510   0.344E-02
  16 F= -.84481282E+02 E0= -.84473396E+02  d E =-.115183E-01
       N       E                     dE             d eps       ncg     rms          rms(c)
DAV:   1    -0.813412320447E+02   -0.66581E-02   -0.51798E-01  2096   0.273E+00    0.270E-01
RMM:   2    -0.813427397432E+02   -0.15077E-02   -0.21164E-02  2587   0.949E-01    0.217E-01
RMM:   3    -0.813426519521E+02    0.87791E-04   -0.53378E-03  2479   0.383E-01    0.154E-01
RMM:   4    -0.813423594871E+02    0.29246E-03   -0.13986E-03  2557   0.193E-01    0.974E-02
RMM:   5    -0.813422551191E+02    0.10437E-03   -0.49745E-04  2359   0.131E-01    0.465E-02
RMM:   6    -0.813422196434E+02    0.35476E-04   -0.13669E-04  1989   0.834E-02    0.127E-02
RMM:   7    -0.813422270464E+02   -0.74031E-05   -0.71229E-05  1667   0.372E-02
  17 F= -.84489030E+02 E0= -.84481231E+02  d E =-.192658E-01
       N       E                     dE             d eps       ncg     rms          rms(c)
DAV:   1    -0.813458017502E+02   -0.35821E-02   -0.93310E-02  2224   0.124E+00    0.103E-01
RMM:   2    -0.813460989542E+02   -0.29720E-03   -0.38912E-03  2690   0.342E-01    0.622E-02
RMM:   3    -0.813461744115E+02   -0.75457E-04   -0.72851E-04  2348   0.118E-01    0.507E-02
RMM:   4    -0.813461368347E+02    0.37577E-04   -0.11541E-04  1890   0.677E-02    0.391E-02
RMM:   5    -0.813461411284E+02   -0.42937E-05   -0.14782E-04  1798   0.624E-02    0.232E-02
RMM:   6    -0.813461298508E+02    0.11278E-04   -0.13610E-05  1257   0.359E-02    0.150E-02
RMM:   7    -0.813461293936E+02    0.45722E-06   -0.46822E-05  1516   0.268E-02
  18 F= -.84492489E+02 E0= -.84484678E+02  d E =-.345929E-02
       N       E                     dE             d eps       ncg     rms          rms(c)
DAV:   1    -0.813539379415E+02   -0.78081E-02   -0.84302E-01  2000   0.371E+00    0.309E-01
RMM:   2    -0.813568522048E+02   -0.29143E-02   -0.36387E-02  2644   0.102E+00    0.194E-01
RMM:   3    -0.813573837138E+02   -0.53151E-03   -0.59069E-03  2634   0.356E-01    0.155E-01
RMM:   4    -0.813570438383E+02    0.33988E-03   -0.11101E-03  2506   0.187E-01    0.118E-01
RMM:   5    -0.813570499786E+02   -0.61403E-05   -0.12240E-03  2508   0.161E-01    0.678E-02
RMM:   6    -0.813569437511E+02    0.10623E-03   -0.11244E-04  1914   0.794E-02    0.443E-02
RMM:   7    -0.813569334828E+02    0.10268E-04   -0.42795E-04  2090   0.792E-02    0.208E-02
RMM:   8    -0.813569219081E+02    0.11575E-04   -0.27903E-05  1457   0.350E-02    0.113E-02
RMM:   9    -0.813569205666E+02    0.13415E-05   -0.31359E-05  1409   0.300E-02
  19 F= -.84501955E+02 E0= -.84494108E+02  d E =-.129251E-01
       N       E                     dE             d eps       ncg     rms          rms(c)
DAV:   1    -0.813627536036E+02   -0.58317E-02   -0.33638E+00  2000   0.739E+00    0.628E-01
RMM:   2    -0.813749551978E+02   -0.12202E-01   -0.15165E-01  2630   0.207E+00    0.390E-01
RMM:   3    -0.813765368033E+02   -0.15816E-02   -0.19839E-02  2644   0.673E-01    0.312E-01
RMM:   4    -0.813751221149E+02    0.14147E-02   -0.43580E-03  2518   0.369E-01    0.239E-01
RMM:   5    -0.813750781904E+02    0.43925E-04   -0.45573E-03  2588   0.312E-01    0.130E-01
RMM:   6    -0.813746743142E+02    0.40388E-03   -0.51131E-04  2171   0.169E-01    0.810E-02
RMM:   7    -0.813746649352E+02    0.93790E-05   -0.16275E-03  2647   0.149E-01    0.453E-02
RMM:   8    -0.813746086695E+02    0.56266E-04   -0.12233E-04  1877   0.520E-02    0.225E-02
RMM:   9    -0.813746059566E+02    0.27129E-05   -0.13859E-04  1617   0.549E-02    0.127E-02
RMM:  10    -0.813746033317E+02    0.26249E-05   -0.11728E-05  1268   0.267E-02
  20 F= -.84517004E+02 E0= -.84509095E+02  d E =-.279737E-01
       N       E                     dE             d eps       ncg     rms          rms(c)
DAV:   1    -0.813470942107E+02    0.27512E-01   -0.13387E+01  2000   0.147E+01    0.125E+00
RMM:   2    -0.813980876662E+02   -0.50993E-01   -0.62108E-01  2603   0.414E+00    0.794E-01
RMM:   3    -0.814038771641E+02   -0.57895E-02   -0.79811E-02  2628   0.140E+00    0.637E-01
RMM:   4    -0.813972953739E+02    0.65818E-02   -0.19183E-02  2532   0.764E-01    0.477E-01
RMM:   5    -0.813971729811E+02    0.12239E-03   -0.17545E-02  2613   0.610E-01    0.256E-01
RMM:   6    -0.813956716077E+02    0.15014E-02   -0.21190E-03  2197   0.345E-01    0.158E-01
RMM:   7    -0.813956243507E+02    0.47257E-04   -0.58891E-03  2811   0.285E-01    0.875E-02
RMM:   8    -0.813954247430E+02    0.19961E-03   -0.47655E-04  2354   0.918E-02    0.446E-02
RMM:   9    -0.813954120402E+02    0.12703E-04   -0.52608E-04  1996   0.955E-02    0.247E-02
RMM:  10    -0.813954030181E+02    0.90221E-05   -0.36557E-05  1541   0.360E-02
  21 F= -.84532598E+02 E0= -.84524580E+02  d E =-.435676E-01
       N       E                     dE             d eps       ncg     rms          rms(c)
DAV:   1    -0.814062426866E+02   -0.10831E-01   -0.20761E+00  2000   0.574E+00    0.495E-01
RMM:   2    -0.814123052119E+02   -0.60625E-02   -0.78681E-02  2576   0.176E+00    0.284E-01
RMM:   3    -0.814147946233E+02   -0.24894E-02   -0.29511E-02  2748   0.567E-01    0.218E-01
RMM:   4    -0.814147753556E+02    0.19268E-04   -0.27881E-03  2618   0.262E-01    0.128E-01
RMM:   5    -0.814150660245E+02   -0.29067E-03   -0.16210E-03  2517   0.211E-01    0.996E-02
RMM:   6    -0.814146436429E+02    0.42238E-03   -0.33316E-04  2197   0.125E-01    0.498E-02
RMM:   7    -0.814146493448E+02   -0.57019E-05   -0.61956E-04  2378   0.100E-01    0.298E-02
RMM:   8    -0.814146275703E+02    0.21775E-04   -0.50870E-05  1651   0.422E-02    0.177E-02
RMM:   9    -0.814146241003E+02    0.34701E-05   -0.76850E-05  1520   0.428E-02
  22 F= -.84549475E+02 E0= -.84541608E+02  d E =-.168773E-01
       N       E                     dE             d eps       ncg     rms          rms(c)
DAV:   1    -0.813772161580E+02    0.37411E-01   -0.14607E+01  2000   0.153E+01    0.135E+00
RMM:   2    -0.814310332093E+02   -0.53817E-01   -0.68557E-01  2606   0.466E+00    0.765E-01
RMM:   3    -0.814412346058E+02   -0.10201E-01   -0.14965E-01  2732   0.136E+00    0.575E-01
RMM:   4    -0.814423296422E+02   -0.10950E-02   -0.27345E-02  2668   0.791E-01    0.332E-01
RMM:   5    -0.814420097906E+02    0.31985E-03   -0.60624E-03  2360   0.469E-01    0.224E-01
RMM:   6    -0.814406460722E+02    0.13637E-02   -0.29714E-03  2417   0.342E-01    0.116E-01
RMM:   7    -0.814407676152E+02   -0.12154E-03   -0.40268E-03  2734   0.233E-01    0.102E-01
RMM:   8    -0.814404907190E+02    0.27690E-03   -0.43147E-04  2289   0.861E-02    0.487E-02
RMM:   9    -0.814404882905E+02    0.24284E-05   -0.81141E-04  2234   0.116E-01    0.354E-02
RMM:  10    -0.814404630735E+02    0.25217E-04   -0.54415E-05  1592   0.388E-02    0.218E-02
RMM:  11    -0.814404563069E+02    0.67666E-05   -0.31900E-05  1416   0.377E-02
  23 F= -.84569024E+02 E0= -.84561580E+02  d E =-.364266E-01
       N       E                     dE             d eps       ncg     rms          rms(c)
DAV:   1    -0.814443432451E+02   -0.38802E-02   -0.11785E-01  2368   0.133E+00    0.118E-01
RMM:   2    -0.814446135008E+02   -0.27026E-03   -0.36601E-03  2626   0.428E-01    0.701E-02
RMM:   3    -0.814447768863E+02   -0.16339E-03   -0.16069E-03  2322   0.164E-01    0.545E-02
RMM:   4    -0.814447597588E+02    0.17127E-04   -0.24297E-04  2068   0.903E-02    0.443E-02
RMM:   5    -0.814447400647E+02    0.19694E-04   -0.11302E-04  1859   0.661E-02    0.220E-02
RMM:   6    -0.814447367744E+02    0.32902E-05   -0.25543E-05  1363   0.384E-02
  24 F= -.84572723E+02 E0= -.84565311E+02  d E =-.369872E-02
       N       E                     dE             d eps       ncg     rms          rms(c)
DAV:   1    -0.814492677946E+02   -0.45277E-02   -0.49438E-01  2000   0.273E+00    0.236E-01
RMM:   2    -0.814504734751E+02   -0.12057E-02   -0.15828E-02  2648   0.875E-01    0.146E-01
RMM:   3    -0.814511347572E+02   -0.66128E-03   -0.68259E-03  2503   0.341E-01    0.110E-01
RMM:   4    -0.814510687702E+02    0.65987E-04   -0.10194E-03  2484   0.166E-01    0.879E-02
RMM:   5    -0.814509740645E+02    0.94706E-04   -0.48785E-04  2379   0.118E-01    0.435E-02
RMM:   6    -0.814509472234E+02    0.26841E-04   -0.78434E-05  1811   0.631E-02    0.225E-02
RMM:   7    -0.814509414124E+02    0.58110E-05   -0.89871E-05  1748   0.484E-02
  25 F= -.84577735E+02 E0= -.84570408E+02  d E =-.871040E-02
       N       E                     dE             d eps       ncg     rms          rms(c)
DAV:   1    -0.814461769839E+02    0.47702E-02   -0.19795E+00  2000   0.542E+00    0.479E-01
RMM:   2    -0.814509765209E+02   -0.47995E-02   -0.61994E-02  2656   0.173E+00    0.289E-01
RMM:   3    -0.814536149480E+02   -0.26384E-02   -0.27869E-02  2540   0.658E-01    0.220E-01
RMM:   4    -0.814533670022E+02    0.24795E-03   -0.36487E-03  2580   0.318E-01    0.173E-01
RMM:   5    -0.814529823517E+02    0.38465E-03   -0.19133E-03  2542   0.228E-01    0.860E-02
RMM:   6    -0.814528533767E+02    0.12897E-03   -0.27788E-04  2163   0.121E-01    0.428E-02
RMM:   7    -0.814528359534E+02    0.17423E-04   -0.35405E-04  2264   0.799E-02    0.207E-02
RMM:   8    -0.814528316086E+02    0.43448E-05   -0.42782E-05  1579   0.391E-02
  26 F= -.84577231E+02 E0= -.84570042E+02  d E =-.820675E-02
       N       E                     dE             d eps       ncg     rms          rms(c)
DAV:   1    -0.814517550543E+02    0.10809E-02   -0.59777E-01  2000   0.295E+00    0.266E-01
RMM:   2    -0.814530244882E+02   -0.12694E-02   -0.17223E-02  2629   0.935E-01    0.158E-01
RMM:   3    -0.814537853231E+02   -0.76083E-03   -0.74971E-03  2529   0.360E-01    0.115E-01
RMM:   4    -0.814537158693E+02    0.69454E-04   -0.12422E-03  2507   0.185E-01    0.923E-02
RMM:   5    -0.814535875547E+02    0.12831E-03   -0.48122E-04  2382   0.119E-01    0.424E-02
RMM:   6    -0.814535722349E+02    0.15320E-04   -0.92597E-05  1840   0.653E-02    0.219E-02
RMM:   7    -0.814535678197E+02    0.44153E-05   -0.73137E-05  1711   0.446E-02
  27 F= -.84579286E+02 E0= -.84572007E+02  d E =-.102622E-01
       N       E                     dE             d eps       ncg     rms          rms(c)
DAV:   1    -0.814536523500E+02   -0.80115E-04   -0.27291E-03  2592   0.208E-01    0.201E-02
RMM:   2    -0.814536565767E+02   -0.42267E-05   -0.85407E-05  1536   0.634E-02
  28 F= -.84579285E+02 E0= -.84572017E+02  d E =-.102613E-01
       N       E                     dE             d eps       ncg     rms          rms(c)
DAV:   1    -0.814536115391E+02    0.40811E-04   -0.81605E-04  2504   0.120E-01    0.126E-02
RMM:   2    -0.814536180386E+02   -0.64996E-05   -0.41103E-05  1486   0.442E-02
  29 F= -.84579296E+02 E0= -.84572012E+02  d E =-.102722E-01
       N       E                     dE             d eps       ncg     rms          rms(c)
DAV:   1    -0.814536380147E+02   -0.26476E-04   -0.23887E-04  2048   0.822E-02    0.812E-03
RMM:   2    -0.814536428109E+02   -0.47961E-05   -0.15074E-05  1244   0.315E-02
  30 F= -.84579296E+02 E0= -.84572018E+02  d E =-.102722E-01
       N       E                     dE             d eps       ncg     rms          rms(c)
DAV:   1    -0.814536255077E+02    0.12507E-04   -0.89374E-05  2176   0.584E-02    0.448E-03
RMM:   2    -0.814536259990E+02   -0.49121E-06   -0.32409E-06  1035   0.131E-02
  31 F= -.84579293E+02 E0= -.84572021E+02  d E =-.102687E-01
       N       E                     dE             d eps       ncg     rms          rms(c)
DAV:   1    -0.814541236873E+02   -0.49818E-03   -0.30512E-03  2048   0.225E-01    0.200E-02
RMM:   2    -0.814541361411E+02   -0.12454E-04   -0.15984E-04  1696   0.673E-02    0.117E-02
RMM:   3    -0.814541378031E+02   -0.16620E-05   -0.19844E-05  1214   0.327E-02
  32 F= -.84579628E+02 E0= -.84572375E+02  d E =-.335033E-03
       N       E                     dE             d eps       ncg     rms          rms(c)
DAV:   1    -0.814555369523E+02   -0.14008E-02   -0.28283E-02  2000   0.678E-01    0.608E-02
RMM:   2    -0.814556337267E+02   -0.96774E-04   -0.13004E-03  2496   0.206E-01    0.361E-02
RMM:   3    -0.814556447163E+02   -0.10990E-04   -0.17673E-04  1969   0.610E-02    0.258E-02
RMM:   4    -0.814556568209E+02   -0.12105E-04   -0.43806E-05  1584   0.527E-02    0.207E-02
RMM:   5    -0.814556442732E+02    0.12548E-04   -0.21313E-05  1368   0.371E-02    0.873E-03
RMM:   6    -0.814556429454E+02    0.13278E-05   -0.51076E-06  1221   0.201E-02
  33 F= -.84580603E+02 E0= -.84573352E+02  d E =-.131012E-02
       N       E                     dE             d eps       ncg     rms          rms(c)
DAV:   1    -0.814581410312E+02   -0.24968E-02   -0.11273E-01  2000   0.135E+00    0.116E-01
RMM:   2    -0.814584809087E+02   -0.33988E-03   -0.46624E-03  2470   0.409E-01    0.662E-02
RMM:   3    -0.814585504669E+02   -0.69558E-04   -0.91934E-04  2448   0.133E-01    0.459E-02
RMM:   4    -0.814585593263E+02   -0.88594E-05   -0.13235E-04  1948   0.674E-02    0.225E-02
RMM:   5    -0.814585565252E+02    0.28010E-05   -0.44125E-05  1557   0.467E-02
  34 F= -.84582457E+02 E0= -.84575207E+02  d E =-.316441E-02
       N       E                     dE             d eps       ncg     rms          rms(c)
DAV:   1    -0.814622504067E+02   -0.36911E-02   -0.45020E-01  2000   0.270E+00    0.235E-01
RMM:   2    -0.814638096838E+02   -0.15593E-02   -0.20578E-02  2547   0.810E-01    0.132E-01
RMM:   3    -0.814639574936E+02   -0.14781E-03   -0.28773E-03  2670   0.229E-01    0.936E-02
RMM:   4    -0.814641771504E+02   -0.21966E-03   -0.85129E-04  2576   0.143E-01    0.720E-02
RMM:   5    -0.814639657720E+02    0.21138E-03   -0.34801E-04  2198   0.101E-01    0.399E-02
RMM:   6    -0.814639350301E+02    0.30742E-04   -0.13275E-04  1946   0.558E-02    0.138E-02
RMM:   7    -0.814639395987E+02   -0.45686E-05   -0.69404E-05  1611   0.460E-02
  35 F= -.84585725E+02 E0= -.84578534E+02  d E =-.643267E-02
       N       E                     dE             d eps       ncg     rms          rms(c)
DAV:   1    -0.814664871350E+02   -0.25521E-02   -0.17929E+00  2000   0.537E+00    0.459E-01
RMM:   2    -0.814724234020E+02   -0.59363E-02   -0.77474E-02  2517   0.157E+00    0.261E-01
RMM:   3    -0.814731273325E+02   -0.70393E-03   -0.12471E-02  2746   0.476E-01    0.181E-01
RMM:   4    -0.814734083660E+02   -0.28103E-03   -0.25007E-03  2684   0.248E-01    0.935E-02
RMM:   5    -0.814732208026E+02    0.18756E-03   -0.82279E-04  2414   0.160E-01    0.718E-02
RMM:   6    -0.814730596781E+02    0.16112E-03   -0.34558E-04  2340   0.102E-01    0.234E-02
RMM:   7    -0.814730755610E+02   -0.15883E-04   -0.20060E-04  1986   0.635E-02    0.192E-02
RMM:   8    -0.814730675641E+02    0.79968E-05   -0.24432E-05  1420   0.359E-02
  36 F= -.84590639E+02 E0= -.84583539E+02  d E =-.113457E-01
       N       E                     dE             d eps       ncg     rms          rms(c)
DAV:   1    -0.814584366816E+02    0.14639E-01   -0.71395E+00  2000   0.107E+01    0.924E-01
RMM:   2    -0.814838078882E+02   -0.25371E-01   -0.32998E-01  2542   0.314E+00    0.529E-01
RMM:   3    -0.814854067405E+02   -0.15989E-02   -0.41251E-02  2739   0.886E-01    0.369E-01
RMM:   4    -0.814881847780E+02   -0.27780E-02   -0.12574E-02  2683   0.550E-01    0.255E-01
RMM:   5    -0.814855950028E+02    0.25898E-02   -0.49210E-03  2421   0.377E-01    0.161E-01
RMM:   6    -0.814849933056E+02    0.60170E-03   -0.19914E-03  2529   0.225E-01    0.563E-02
RMM:   7    -0.814851009173E+02   -0.10761E-03   -0.12832E-03  2630   0.145E-01    0.527E-02
RMM:   8    -0.814850336959E+02    0.67221E-04   -0.15484E-04  2031   0.544E-02    0.253E-02
RMM:   9    -0.814850375729E+02   -0.38770E-05   -0.19158E-04  1727   0.634E-02    0.178E-02
RMM:  10    -0.814850351362E+02    0.24367E-05   -0.19917E-05  1362   0.305E-02
  37 F= -.84594234E+02 E0= -.84587303E+02  d E =-.149409E-01
       N       E                     dE             d eps       ncg     rms          rms(c)
DAV:   1    -0.814834220462E+02    0.16155E-02   -0.10193E+00  2000   0.386E+00    0.355E-01
RMM:   2    -0.814866210974E+02   -0.31991E-02   -0.41051E-02  2711   0.118E+00    0.232E-01
RMM:   3    -0.814871931287E+02   -0.57203E-03   -0.67851E-03  2536   0.432E-01    0.181E-01
RMM:   4    -0.814863919643E+02    0.80116E-03   -0.14402E-03  2483   0.236E-01    0.120E-01
RMM:   5    -0.814862669606E+02    0.12500E-03   -0.86801E-04  2558   0.154E-01    0.519E-02
RMM:   6    -0.814861961062E+02    0.70854E-04   -0.18488E-04  2066   0.102E-01    0.232E-02
RMM:   7    -0.814861900850E+02    0.60212E-05   -0.12157E-04  1990   0.549E-02    0.856E-03
RMM:   8    -0.814861931179E+02   -0.30328E-05   -0.34355E-05  1472   0.379E-02
  38 F= -.84592672E+02 E0= -.84585715E+02  d E =0.156147E-02
       N       E                     dE             d eps       ncg     rms          rms(c)
DAV:   1    -0.814861886878E+02    0.13972E-05   -0.37659E-01  2000   0.234E+00    0.216E-01
RMM:   2    -0.814870486005E+02   -0.85991E-03   -0.12291E-02  2692   0.702E-01    0.135E-01
RMM:   3    -0.814875631198E+02   -0.51452E-03   -0.44894E-03  2542   0.288E-01    0.115E-01
RMM:   4    -0.814871900180E+02    0.37310E-03   -0.63025E-04  2401   0.147E-01    0.759E-02
RMM:   5    -0.814871592054E+02    0.30813E-04   -0.35462E-04  2330   0.955E-02    0.379E-02
RMM:   6    -0.814871404905E+02    0.18715E-04   -0.77558E-05  1754   0.656E-02    0.193E-02
RMM:   7    -0.814871349048E+02    0.55857E-05   -0.52097E-05  1611   0.448E-02
  39 F= -.84595270E+02 E0= -.84588325E+02  d E =-.103654E-02
       N       E                     dE             d eps       ncg     rms          rms(c)
DAV:   1    -0.814901858358E+02   -0.30453E-02   -0.19143E-01  2000   0.175E+00    0.150E-01
RMM:   2    -0.814907063666E+02   -0.52053E-03   -0.71037E-03  2526   0.525E-01    0.836E-02
RMM:   3    -0.814909507249E+02   -0.24436E-03   -0.23526E-03  2630   0.187E-01    0.696E-02
RMM:   4    -0.814908913140E+02    0.59411E-04   -0.27367E-04  2223   0.869E-02    0.554E-02
RMM:   5    -0.814908997158E+02   -0.84019E-05   -0.33955E-04  1918   0.817E-02    0.387E-02
RMM:   6    -0.814908667743E+02    0.32942E-04   -0.29987E-05  1394   0.379E-02    0.213E-02
RMM:   7    -0.814908692930E+02   -0.25188E-05   -0.13481E-04  1635   0.418E-02    0.145E-02
RMM:   8    -0.814908650851E+02    0.42079E-05   -0.75873E-06  1242   0.262E-02
  40 F= -.84597721E+02 E0= -.84590741E+02  d E =-.245106E-02
       N       E                     dE             d eps       ncg     rms          rms(c)
DAV:   1    -0.814936774716E+02   -0.28082E-02   -0.17201E+00  2000   0.523E+00    0.451E-01
RMM:   2    -0.814996290287E+02   -0.59516E-02   -0.75382E-02  2488   0.160E+00    0.266E-01
RMM:   3    -0.815009951024E+02   -0.13661E-02   -0.14846E-02  2752   0.537E-01    0.207E-01
RMM:   4    -0.815006837999E+02    0.31130E-03   -0.28879E-03  2606   0.267E-01    0.168E-01
RMM:   5    -0.815004928434E+02    0.19096E-03   -0.20638E-03  2507   0.205E-01    0.937E-02
RMM:   6    -0.815002960810E+02    0.19676E-03   -0.23068E-04  2116   0.844E-02    0.487E-02
RMM:   7    -0.815003086758E+02   -0.12595E-04   -0.64584E-04  2087   0.905E-02    0.299E-02
RMM:   8    -0.815002861204E+02    0.22555E-04   -0.39865E-05  1506   0.433E-02    0.174E-02
RMM:   9    -0.815002954166E+02   -0.92962E-05   -0.15558E-04  1661   0.503E-02    0.222E-02
RMM:  10    -0.815002850757E+02    0.10341E-04   -0.98954E-06  1290   0.230E-02    0.124E-02
RMM:  11    -0.815002836793E+02    0.13964E-05   -0.20677E-05  1371   0.182E-02
  41 F= -.84603330E+02 E0= -.84596244E+02  d E =-.805930E-02
       N       E                     dE             d eps       ncg     rms          rms(c)
DAV:   1    -0.814839083116E+02    0.16377E-01   -0.68506E+00  2000   0.104E+01    0.904E-01
RMM:   2    -0.815097341248E+02   -0.25826E-01   -0.32017E-01  2469   0.321E+00    0.539E-01
RMM:   3    -0.815147114808E+02   -0.49774E-02   -0.55842E-02  2751   0.107E+00    0.427E-01
RMM:   4    -0.815129584692E+02    0.17530E-02   -0.11143E-02  2610   0.533E-01    0.341E-01
RMM:   5    -0.815122992719E+02    0.65920E-03   -0.81983E-03  2621   0.398E-01    0.185E-01
RMM:   6    -0.815115155646E+02    0.78371E-03   -0.98923E-04  2377   0.188E-01    0.890E-02
RMM:   7    -0.815116106142E+02   -0.95050E-04   -0.24439E-03  2648   0.178E-01    0.638E-02
RMM:   8    -0.815115063457E+02    0.10427E-03   -0.19377E-04  2105   0.693E-02    0.353E-02
RMM:   9    -0.815115231647E+02   -0.16819E-04   -0.49121E-04  1890   0.857E-02    0.350E-02
RMM:  10    -0.815114929354E+02    0.30229E-04   -0.49515E-05  1491   0.366E-02    0.133E-02
RMM:  11    -0.815114934404E+02   -0.50504E-06   -0.29771E-05  1421   0.266E-02
  42 F= -.84607035E+02 E0= -.84599806E+02  d E =-.117651E-01
       N       E                     dE             d eps       ncg     rms          rms(c)
DAV:   1    -0.815097676740E+02    0.17253E-02   -0.11074E+00  2000   0.406E+00    0.352E-01
RMM:   2    -0.815130788975E+02   -0.33112E-02   -0.39969E-02  2606   0.132E+00    0.231E-01
RMM:   3    -0.815145380236E+02   -0.14591E-02   -0.14246E-02  2616   0.513E-01    0.196E-01
RMM:   4    -0.815137245306E+02    0.81349E-03   -0.19955E-03  2473   0.247E-01    0.138E-01
RMM:   5    -0.815136950330E+02    0.29498E-04   -0.15250E-03  2602   0.182E-01    0.708E-02
RMM:   6    -0.815135893995E+02    0.10563E-03   -0.18223E-04  2089   0.973E-02    0.427E-02
RMM:   7    -0.815135632498E+02    0.26150E-04   -0.27215E-04  2050   0.730E-02    0.148E-02
RMM:   8    -0.815135624259E+02    0.82395E-06   -0.36606E-05  1554   0.354E-02
  43 F= -.84606337E+02 E0= -.84599086E+02  d E =0.698432E-03
       N       E                     dE             d eps       ncg     rms          rms(c)
DAV:   1    -0.815120924486E+02    0.14708E-02   -0.37779E-01  2000   0.236E+00    0.206E-01
RMM:   2    -0.815130604943E+02   -0.96805E-03   -0.12128E-02  2616   0.736E-01    0.130E-01
RMM:   3    -0.815136723527E+02   -0.61186E-03   -0.52072E-03  2613   0.298E-01    0.115E-01
RMM:   4    -0.815133393866E+02    0.33297E-03   -0.64824E-04  2362   0.141E-01    0.791E-02
RMM:   5    -0.815133364300E+02    0.29565E-05   -0.53100E-04  2382   0.105E-01    0.430E-02
RMM:   6    -0.815133073298E+02    0.29100E-04   -0.61920E-05  1728   0.582E-02    0.262E-02
RMM:   7    -0.815132977922E+02    0.95376E-05   -0.10163E-04  1651   0.515E-02    0.983E-03
RMM:   8    -0.815132982720E+02   -0.47986E-06   -0.15540E-05  1288   0.289E-02
  44 F= -.84607689E+02 E0= -.84600453E+02  d E =-.653456E-03
       N       E                     dE             d eps       ncg     rms          rms(c)
DAV:   1    -0.815151214789E+02   -0.18237E-02   -0.11557E-01  2192   0.133E+00    0.114E-01
RMM:   2    -0.815153646804E+02   -0.24320E-03   -0.34079E-03  2304   0.427E-01    0.695E-02
RMM:   3    -0.815155448378E+02   -0.18016E-03   -0.18094E-03  2497   0.168E-01    0.521E-02
RMM:   4    -0.815155727210E+02   -0.27883E-04   -0.24618E-04  2242   0.937E-02    0.433E-02
RMM:   5    -0.815155404917E+02    0.32229E-04   -0.85302E-05  1733   0.552E-02    0.245E-02
RMM:   6    -0.815155360228E+02    0.44689E-05   -0.17381E-05  1281   0.339E-02
  45 F= -.84609082E+02 E0= -.84601844E+02  d E =-.139368E-02
       N       E                     dE             d eps       ncg     rms          rms(c)
DAV:   1    -0.815165585507E+02   -0.10181E-02   -0.10376E+00  2000   0.400E+00    0.343E-01
RMM:   2    -0.815190102821E+02   -0.24517E-02   -0.32145E-02  2320   0.131E+00    0.209E-01
RMM:   3    -0.815208205461E+02   -0.18103E-02   -0.18762E-02  2684   0.511E-01    0.163E-01
RMM:   4    -0.815209961072E+02   -0.17556E-03   -0.22947E-03  2624   0.243E-01    0.136E-01
RMM:   5    -0.815207147824E+02    0.28132E-03   -0.79920E-04  2392   0.152E-01    0.783E-02
RMM:   6    -0.815206895791E+02    0.25203E-04   -0.18497E-04  2108   0.707E-02    0.420E-02
RMM:   7    -0.815206630726E+02    0.26507E-04   -0.13156E-04  1944   0.777E-02    0.149E-02
RMM:   8    -0.815206612556E+02    0.18170E-05   -0.34417E-05  1475   0.415E-02
  46 F= -.84611692E+02 E0= -.84604444E+02  d E =-.400337E-02
       N       E                     dE             d eps       ncg     rms          rms(c)
DAV:   1    -0.815072546206E+02    0.13408E-01   -0.41246E+00  2000   0.799E+00    0.691E-01
RMM:   2    -0.815171568343E+02   -0.99022E-02   -0.13060E-01  2346   0.261E+00    0.413E-01
RMM:   3    -0.815249682424E+02   -0.78114E-02   -0.80865E-02  2710   0.102E+00    0.340E-01
RMM:   4    -0.815251791927E+02   -0.21095E-03   -0.77135E-03  2635   0.446E-01    0.283E-01
RMM:   5    -0.815243016580E+02    0.87753E-03   -0.33818E-03  2492   0.297E-01    0.170E-01
RMM:   6    -0.815241689972E+02    0.13266E-03   -0.63930E-04  2560   0.123E-01    0.906E-02
RMM:   7    -0.815240432227E+02    0.12577E-03   -0.77760E-04  2323   0.153E-01    0.240E-02
RMM:   8    -0.815240336912E+02    0.95316E-05   -0.92217E-05  1874   0.646E-02
  47 F= -.84610106E+02 E0= -.84602903E+02  d E =-.241770E-02
       N       E                     dE             d eps       ncg     rms          rms(c)
DAV:   1    -0.815155923220E+02    0.84509E-02   -0.20673E+00  2000   0.565E+00    0.477E-01
RMM:   2    -0.815200153714E+02   -0.44230E-02   -0.57878E-02  2348   0.180E+00    0.290E-01
RMM:   3    -0.815227646868E+02   -0.27493E-02   -0.28665E-02  2680   0.662E-01    0.210E-01
RMM:   4    -0.815234385907E+02   -0.67390E-03   -0.47778E-03  2645   0.350E-01    0.178E-01
RMM:   5    -0.815226798455E+02    0.75875E-03   -0.14839E-03  2401   0.218E-01    0.901E-02
RMM:   6    -0.815226210710E+02    0.58774E-04   -0.30822E-04  2373   0.795E-02    0.418E-02
RMM:   7    -0.815226029619E+02    0.18109E-04   -0.20173E-04  2042   0.851E-02    0.162E-02
RMM:   8    -0.815225991897E+02    0.37722E-05   -0.37189E-05  1528   0.485E-02
  48 F= -.84612151E+02 E0= -.84604908E+02  d E =-.446250E-02
       N       E                     dE             d eps       ncg     rms          rms(c)
DAV:   1    -0.815236778990E+02   -0.10749E-02   -0.52889E-02  2016   0.880E-01    0.778E-02
RMM:   2    -0.815237937479E+02   -0.11585E-03   -0.15169E-03  2438   0.289E-01    0.492E-02
RMM:   3    -0.815238729866E+02   -0.79239E-04   -0.66990E-04  2365   0.112E-01    0.397E-02
RMM:   4    -0.815238457421E+02    0.27245E-04   -0.10830E-04  1893   0.614E-02    0.288E-02
RMM:   5    -0.815238380963E+02    0.76458E-05   -0.47928E-05  1501   0.458E-02
  49 F= -.84612817E+02 E0= -.84605591E+02  d E =-.666099E-03
       N       E                     dE             d eps       ncg     rms          rms(c)
DAV:   1    -0.815244141868E+02   -0.56844E-03   -0.39269E-02  2112   0.759E-01    0.724E-02
RMM:   2    -0.815245002996E+02   -0.86113E-04   -0.12032E-03  2560   0.244E-01    0.422E-02
RMM:   3    -0.815245678156E+02   -0.67516E-04   -0.49901E-04  2302   0.975E-02    0.361E-02
RMM:   4    -0.815245304431E+02    0.37372E-04   -0.84802E-05  1778   0.595E-02    0.236E-02
RMM:   5    -0.815245274570E+02    0.29861E-05   -0.42797E-05  1470   0.409E-02
  50 F= -.84613016E+02 E0= -.84605792E+02  d E =-.864489E-03
       N       E                     dE             d eps       ncg     rms          rms(c)
DAV:   1    -0.815245595114E+02   -0.29068E-04   -0.20865E-04  2648   0.682E-02    0.102E-02
RMM:   2    -0.815245591982E+02    0.31323E-06   -0.18503E-05  1260   0.295E-02
  51 F= -.84613014E+02 E0= -.84605792E+02  d E =-.862860E-03
       N       E                     dE             d eps       ncg     rms          rms(c)
DAV:   1    -0.815248659675E+02   -0.30646E-03   -0.12766E-03  2184   0.147E-01    0.129E-02
RMM:   2    -0.815248693240E+02   -0.33565E-05   -0.46549E-05  1449   0.529E-02
  52 F= -.84613166E+02 E0= -.84605946E+02  d E =-.151642E-03
       N       E                     dE             d eps       ncg     rms          rms(c)
DAV:   1    -0.815257232251E+02   -0.85726E-03   -0.11242E-02  2016   0.436E-01    0.394E-02
RMM:   2    -0.815257633860E+02   -0.40161E-04   -0.48345E-04  2577   0.153E-01    0.257E-02
RMM:   3    -0.815257813947E+02   -0.18009E-04   -0.19647E-04  2019   0.652E-02    0.239E-02
RMM:   4    -0.815257675655E+02    0.13829E-04   -0.24478E-05  1324   0.443E-02    0.145E-02
RMM:   5    -0.815257677419E+02   -0.17639E-06   -0.11404E-05  1241   0.301E-02
  53 F= -.84613589E+02 E0= -.84606361E+02  d E =-.574973E-03
       N       E                     dE             d eps       ncg     rms          rms(c)
DAV:   1    -0.815272047490E+02   -0.14372E-02   -0.43711E-02  2000   0.862E-01    0.735E-02
RMM:   2    -0.815273315324E+02   -0.12678E-03   -0.18861E-03  2481   0.319E-01    0.403E-02
RMM:   3    -0.815273994241E+02   -0.67892E-04   -0.74181E-04  2418   0.119E-01    0.311E-02
RMM:   4    -0.815274006870E+02   -0.12629E-05   -0.94480E-05  1799   0.628E-02
  54 F= -.84614273E+02 E0= -.84607085E+02  d E =-.125932E-02
       N       E                     dE             d eps       ncg     rms          rms(c)
DAV:   1    -0.815292504175E+02   -0.18510E-02   -0.17530E-01  2000   0.172E+00    0.148E-01
RMM:   2    -0.815297833818E+02   -0.53296E-03   -0.71541E-03  2464   0.640E-01    0.898E-02
RMM:   3    -0.815301461551E+02   -0.36277E-03   -0.32065E-03  2675   0.243E-01    0.814E-02
RMM:   4    -0.815300061599E+02    0.14000E-03   -0.42557E-04  2415   0.109E-01    0.557E-02
RMM:   5    -0.815299938023E+02    0.12358E-04   -0.16869E-04  2096   0.731E-02    0.334E-02
RMM:   6    -0.815299869608E+02    0.68415E-05   -0.66552E-05  1711   0.572E-02
  55 F= -.84614969E+02 E0= -.84607791E+02  d E =-.195502E-02
       N       E                     dE             d eps       ncg     rms          rms(c)
DAV:   1    -0.815309816987E+02   -0.98790E-03   -0.30232E-02  2000   0.698E-01    0.603E-02
RMM:   2    -0.815310673837E+02   -0.85685E-04   -0.15170E-03  2551   0.251E-01    0.398E-02
RMM:   3    -0.815310854288E+02   -0.18045E-04   -0.34925E-04  2327   0.861E-02    0.287E-02
RMM:   4    -0.815310813537E+02    0.40751E-05   -0.12600E-04  1926   0.632E-02    0.218E-02
RMM:   5    -0.815310684217E+02    0.12932E-04   -0.27123E-05  1424   0.395E-02    0.124E-02
RMM:   6    -0.815310648622E+02    0.35594E-05   -0.80208E-06  1231   0.273E-02
  56 F= -.84615269E+02 E0= -.84608090E+02  d E =-.299867E-03
       N       E                     dE             d eps       ncg     rms          rms(c)
DAV:   1    -0.815309074908E+02    0.16093E-03   -0.18457E-03  2448   0.174E-01    0.141E-02
RMM:   2    -0.815309127196E+02   -0.52288E-05   -0.83338E-05  1750   0.572E-02
  57 F= -.84615308E+02 E0= -.84608130E+02  d E =-.338652E-03
       N       E                     dE             d eps       ncg     rms          rms(c)
DAV:   1    -0.815314745497E+02   -0.56706E-03   -0.14326E-03  2112   0.143E-01    0.164E-02
RMM:   2    -0.815314865033E+02   -0.11954E-04   -0.85442E-05  1954   0.634E-02    0.153E-02
RMM:   3    -0.815314780886E+02    0.84147E-05   -0.25561E-05  1394   0.339E-02
  58 F= -.84615581E+02 E0= -.84608388E+02  d E =-.273397E-03
       N       E                     dE             d eps       ncg     rms          rms(c)
DAV:   1    -0.815330136660E+02   -0.15272E-02   -0.13715E-02  2016   0.424E-01    0.464E-02
RMM:   2    -0.815330500095E+02   -0.36343E-04   -0.84037E-04  2458   0.202E-01    0.343E-02
RMM:   3    -0.815330646577E+02   -0.14648E-04   -0.29896E-04  2288   0.765E-02    0.203E-02
RMM:   4    -0.815330598755E+02    0.47821E-05   -0.32656E-05  1484   0.441E-02
  59 F= -.84616288E+02 E0= -.84609119E+02  d E =-.980267E-03
       N       E                     dE             d eps       ncg     rms          rms(c)
DAV:   1    -0.815355166957E+02   -0.24520E-02   -0.53712E-02  2000   0.838E-01    0.903E-02
RMM:   2    -0.815356990208E+02   -0.18233E-03   -0.33509E-03  2487   0.391E-01    0.663E-02
RMM:   3    -0.815357535640E+02   -0.54543E-04   -0.11117E-03  2653   0.141E-01    0.411E-02
RMM:   4    -0.815357199297E+02    0.33634E-04   -0.13581E-04  2093   0.642E-02    0.296E-02
RMM:   5    -0.815356907630E+02    0.29167E-04   -0.54713E-05  1658   0.479E-02    0.135E-02
RMM:   6    -0.815356891782E+02    0.15848E-05   -0.18774E-05  1344   0.319E-02
  60 F= -.84617172E+02 E0= -.84609956E+02  d E =-.186392E-02
       N       E                     dE             d eps       ncg     rms          rms(c)
DAV:   1    -0.815382241985E+02   -0.25334E-02   -0.21384E-01  2000   0.167E+00    0.179E-01
RMM:   2    -0.815389679470E+02   -0.74375E-03   -0.13527E-02  2486   0.798E-01    0.134E-01
RMM:   3    -0.815391899124E+02   -0.22197E-03   -0.46599E-03  2729   0.282E-01    0.795E-02
RMM:   4    -0.815390700799E+02    0.11983E-03   -0.54195E-04  2554   0.119E-01    0.596E-02
RMM:   5    -0.815389580906E+02    0.11199E-03   -0.21649E-04  2212   0.860E-02    0.266E-02
RMM:   6    -0.815389514211E+02    0.66694E-05   -0.88625E-05  1882   0.501E-02
  61 F= -.84616958E+02 E0= -.84609674E+02  d E =-.165039E-02
       N       E                     dE             d eps       ncg     rms          rms(c)
DAV:   1    -0.815371454404E+02    0.18127E-02   -0.70858E-02  2000   0.963E-01    0.992E-02
RMM:   2    -0.815374114731E+02   -0.26603E-03   -0.43309E-03  2524   0.440E-01    0.717E-02
RMM:   3    -0.815374678300E+02   -0.56357E-04   -0.12979E-03  2654   0.158E-01    0.422E-02
RMM:   4    -0.815374329990E+02    0.34831E-04   -0.15934E-04  2137   0.720E-02    0.311E-02
RMM:   5    -0.815374022112E+02    0.30788E-04   -0.57307E-05  1687   0.506E-02    0.138E-02
RMM:   6    -0.815374003777E+02    0.18334E-05   -0.22991E-05  1378   0.337E-02
  62 F= -.84617410E+02 E0= -.84610166E+02  d E =-.210235E-02
       N       E                     dE             d eps       ncg     rms          rms(c)
DAV:   1    -0.815371096277E+02    0.29258E-03   -0.28242E-02  2112   0.613E-01    0.598E-02
RMM:   2    -0.815371682830E+02   -0.58655E-04   -0.11196E-03  2663   0.181E-01    0.424E-02
RMM:   3    -0.815371886127E+02   -0.20330E-04   -0.20401E-04  1996   0.765E-02    0.343E-02
RMM:   4    -0.815371462119E+02    0.42401E-04   -0.79184E-05  1791   0.560E-02    0.144E-02
RMM:   5    -0.815371408921E+02    0.53198E-05   -0.21732E-05  1385   0.368E-02
  63 F= -.84617318E+02 E0= -.84610055E+02  d E =0.921064E-04
       N       E                     dE             d eps       ncg     rms          rms(c)
DAV:   1    -0.815374428087E+02   -0.29660E-03   -0.89859E-03  2112   0.349E-01    0.326E-02
RMM:   2    -0.815374600680E+02   -0.17259E-04   -0.34502E-04  2198   0.102E-01    0.239E-02
RMM:   3    -0.815374650794E+02   -0.50113E-05   -0.59259E-05  1544   0.469E-02
  64 F= -.84617548E+02 E0= -.84610323E+02  d E =-.137675E-03
       N       E                     dE             d eps       ncg     rms          rms(c)
DAV:   1    -0.815374596883E+02    0.37967E-06   -0.10442E-04  2704   0.612E-02    0.956E-03
RMM:   2    -0.815374599979E+02   -0.30951E-06   -0.87603E-06  1207   0.222E-02
  65 F= -.84617539E+02 E0= -.84610306E+02  d E =-.128378E-03
       N       E                     dE             d eps       ncg     rms          rms(c)
DAV:   1    -0.815374575059E+02    0.21825E-05   -0.24875E-05  1600   0.354E-02    0.583E-03
RMM:   2    -0.815374617594E+02   -0.42535E-05   -0.57489E-06  1182   0.209E-02
  66 F= -.84617542E+02 E0= -.84610309E+02  d E =-.132135E-03
       N       E                     dE             d eps       ncg     rms          rms(c)
DAV:   1    -0.815374582855E+02   -0.77959E-06   -0.28770E-05  1528   0.314E-02    0.198E-03
RMM:   2    -0.815374585977E+02   -0.31221E-06   -0.11726E-06  1031   0.793E-03
  67 F= -.84617538E+02 E0= -.84610294E+02  d E =-.128128E-03
       N       E                     dE             d eps       ncg     rms          rms(c)
DAV:   1    -0.815374583384E+02   -0.52927E-07   -0.15357E-06  1528   0.933E-03    0.136E-03
RMM:   2    -0.815374586695E+02   -0.33108E-06   -0.49139E-07   797   0.629E-03
  68 F= -.84617539E+02 E0= -.84610295E+02  d E =-.128567E-03
       N       E                     dE             d eps       ncg     rms          rms(c)
DAV:   1    -0.815374895078E+02   -0.31169E-04   -0.91077E-04  2016   0.120E-01    0.105E-02
RMM:   2    -0.815374908154E+02   -0.13076E-05   -0.21610E-05  1197   0.369E-02
  69 F= -.84617602E+02 E0= -.84610355E+02  d E =-.637574E-04
